+ 1 0 2 cbr 210 ------- 0 0.0 3.0 0 0
- 1 0 2 cbr 210 ------- 0 0.0 3.0 0 0
r 1.00156 0 2 cbr 210 ------- 0 0.0 3.0 0 0
+ 1.00156 2 3 cbr 210 ------- 0 0.0 3.0 0 0
- 1.00156 2 3 cbr 210 ------- 0 0.0 3.0 0 0
+ 1.00375 0 2 cbr 210 ------- 0 0.0 3.0 1 1
- 1.00375 0 2 cbr 210 ------- 0 0.0 3.0 1 1
r 1.00531 0 2 cbr 210 ------- 0 0.0 3.0 1 1
+ 1.00531 2 3 cbr 210 ------- 0 0.0 3.0 1 1
- 1.00531 2 3 cbr 210 ------- 0 0.0 3.0 1 1
+ 1.0075 0 2 cbr 210 ------- 0 0.0 3.0 2 2
- 1.0075 0 2 cbr 210 ------- 0 0.0 3.0 2 2
r 1.00906 0 2 cbr 210 ------- 0 0.0 3.0 2 2
+ 1.00906 2 3 cbr 210 ------- 0 0.0 3.0 2 2
- 1.00906 2 3 cbr 210 ------- 0 0.0 3.0 2 2
+ 1.01125 0 2 cbr 210 ------- 0 0.0 3.0 3 3
- 1.01125 0 2 cbr 210 ------- 0 0.0 3.0 3 3
r 1.01281 0 2 cbr 210 ------- 0 0.0 3.0 3 3
+ 1.01281 2 3 cbr 210 ------- 0 0.0 3.0 3 3
- 1.01281 2 3 cbr 210 ------- 0 0.0 3.0 3 3
+ 1.015 0 2 cbr 210 ------- 0 0.0 3.0 4 4
- 1.015 0 2 cbr 210 ------- 0 0.0 3.0 4 4
r 1.01656 0 2 cbr 210 ------- 0 0.0 3.0 4 4
+ 1.01656 2 3 cbr 210 ------- 0 0.0 3.0 4 4
- 1.01656 2 3 cbr 210 ------- 0 0.0 3.0 4 4
+ 1.01875 0 2 cbr 210 ------- 0 0.0 3.0 5 5
- 1.01875 0 2 cbr 210 ------- 0 0.0 3.0 5 5
r 1.02031 0 2 cbr 210 ------- 0 0.0 3.0 5 5
+ 1.02031 2 3 cbr 210 ------- 0 0.0 3.0 5 5
- 1.02031 2 3 cbr 210 ------- 0 0.0 3.0 5 5
+ 1.0225 0 2 cbr 210 ------- 0 0.0 3.0 6 6
- 1.0225 0 2 cbr 210 ------- 0 0.0 3.0 6 6
r 1.02406 0 2 cbr 210 ------- 0 0.0 3.0 6 6
+ 1.02406 2 3 cbr 210 ------- 0 0.0 3.0 6 6
- 1.02406 2 3 cbr 210 ------- 0 0.0 3.0 6 6
+ 1.02625 0 2 cbr 210 ------- 0 0.0 3.0 7 7
- 1.02625 0 2 cbr 210 ------- 0 0.0 3.0 7 7
r 1.02781 0 2 cbr 210 ------- 0 0.0 3.0 7 7
+ 1.02781 2 3 cbr 210 ------- 0 0.0 3.0 7 7
- 1.02781 2 3 cbr 210 ------- 0 0.0 3.0 7 7
+ 1.03 0 2 cbr 210 ------- 0 0.0 3.0 8 8
- 1.03 0 2 cbr 210 ------- 0 0.0 3.0 8 8
r 1.03156 0 2 cbr 210 ------- 0 0.0 3.0 8 8
+ 1.03156 2 3 cbr 210 ------- 0 0.0 3.0 8 8
- 1.03156 2 3 cbr 210 ------- 0 0.0 3.0 8 8
+ 1.03375 0 2 cbr 210 ------- 0 0.0 3.0 9 9
- 1.03375 0 2 cbr 210 ------- 0 0.0 3.0 9 9
r 1.03531 0 2 cbr 210 ------- 0 0.0 3.0 9 9
+ 1.03531 2 3 cbr 210 ------- 0 0.0 3.0 9 9
- 1.03531 2 3 cbr 210 ------- 0 0.0 3.0 9 9
+ 1.0375 0 2 cbr 210 ------- 0 0.0 3.0 10 10
- 1.0375 0 2 cbr 210 ------- 0 0.0 3.0 10 10
r 1.03906 0 2 cbr 210 ------- 0 0.0 3.0 10 10
+ 1.03906 2 3 cbr 210 ------- 0 0.0 3.0 10 10
- 1.03906 2 3 cbr 210 ------- 0 0.0 3.0 10 10
+ 1.04125 0 2 cbr 210 ------- 0 0.0 3.0 11 11
- 1.04125 0 2 cbr 210 ------- 0 0.0 3.0 11 11
r 1.04281 0 2 cbr 210 ------- 0 0.0 3.0 11 11
+ 1.04281 2 3 cbr 210 ------- 0 0.0 3.0 11 11
- 1.04281 2 3 cbr 210 ------- 0 0.0 3.0 11 11
+ 1.045 0 2 cbr 210 ------- 0 0.0 3.0 12 12
- 1.045 0 2 cbr 210 ------- 0 0.0 3.0 12 12
r 1.04656 0 2 cbr 210 ------- 0 0.0 3.0 12 12
+ 1.04656 2 3 cbr 210 ------- 0 0.0 3.0 12 12
- 1.04656 2 3 cbr 210 ------- 0 0.0 3.0 12 12
+ 1.04875 0 2 cbr 210 ------- 0 0.0 3.0 13 13
- 1.04875 0 2 cbr 210 ------- 0 0.0 3.0 13 13
r 1.05031 0 2 cbr 210 ------- 0 0.0 3.0 13 13
+ 1.05031 2 3 cbr 210 ------- 0 0.0 3.0 13 13
- 1.05031 2 3 cbr 210 ------- 0 0.0 3.0 13 13
+ 1.0525 0 2 cbr 210 ------- 0 0.0 3.0 14 14
- 1.0525 0 2 cbr 210 ------- 0 0.0 3.0 14 14
r 1.05406 0 2 cbr 210 ------- 0 0.0 3.0 14 14
+ 1.05406 2 3 cbr 210 ------- 0 0.0 3.0 14 14
- 1.05406 2 3 cbr 210 ------- 0 0.0 3.0 14 14
+ 1.05625 0 2 cbr 210 ------- 0 0.0 3.0 15 15
- 1.05625 0 2 cbr 210 ------- 0 0.0 3.0 15 15
r 1.05781 0 2 cbr 210 ------- 0 0.0 3.0 15 15
+ 1.05781 2 3 cbr 210 ------- 0 0.0 3.0 15 15
- 1.05781 2 3 cbr 210 ------- 0 0.0 3.0 15 15
+ 1.06 0 2 cbr 210 ------- 0 0.0 3.0 16 16
- 1.06 0 2 cbr 210 ------- 0 0.0 3.0 16 16
r 1.06156 0 2 cbr 210 ------- 0 0.0 3.0 16 16
+ 1.06156 2 3 cbr 210 ------- 0 0.0 3.0 16 16
- 1.06156 2 3 cbr 210 ------- 0 0.0 3.0 16 16
+ 1.06375 0 2 cbr 210 ------- 0 0.0 3.0 17 17
- 1.06375 0 2 cbr 210 ------- 0 0.0 3.0 17 17
r 1.06531 0 2 cbr 210 ------- 0 0.0 3.0 17 17
+ 1.06531 2 3 cbr 210 ------- 0 0.0 3.0 17 17
- 1.06531 2 3 cbr 210 ------- 0 0.0 3.0 17 17
+ 1.0675 0 2 cbr 210 ------- 0 0.0 3.0 18 18
- 1.0675 0 2 cbr 210 ------- 0 0.0 3.0 18 18
r 1.06906 0 2 cbr 210 ------- 0 0.0 3.0 18 18
+ 1.06906 2 3 cbr 210 ------- 0 0.0 3.0 18 18
- 1.06906 2 3 cbr 210 ------- 0 0.0 3.0 18 18
+ 1.07125 0 2 cbr 210 ------- 0 0.0 3.0 19 19
- 1.07125 0 2 cbr 210 ------- 0 0.0 3.0 19 19
r 1.07281 0 2 cbr 210 ------- 0 0.0 3.0 19 19
+ 1.07281 2 3 cbr 210 ------- 0 0.0 3.0 19 19
- 1.07281 2 3 cbr 210 ------- 0 0.0 3.0 19 19
+ 1.075 0 2 cbr 210 ------- 0 0.0 3.0 20 20
- 1.075 0 2 cbr 210 ------- 0 0.0 3.0 20 20
r 1.07656 0 2 cbr 210 ------- 0 0.0 3.0 20 20
+ 1.07656 2 3 cbr 210 ------- 0 0.0 3.0 20 20
- 1.07656 2 3 cbr 210 ------- 0 0.0 3.0 20 20
+ 1.07875 0 2 cbr 210 ------- 0 0.0 3.0 21 21
- 1.07875 0 2 cbr 210 ------- 0 0.0 3.0 21 21
r 1.08031 0 2 cbr 210 ------- 0 0.0 3.0 21 21
+ 1.08031 2 3 cbr 210 ------- 0 0.0 3.0 21 21
- 1.08031 2 3 cbr 210 ------- 0 0.0 3.0 21 21
+ 1.0825 0 2 cbr 210 ------- 0 0.0 3.0 22 22
- 1.0825 0 2 cbr 210 ------- 0 0.0 3.0 22 22
r 1.08406 0 2 cbr 210 ------- 0 0.0 3.0 22 22
+ 1.08406 2 3 cbr 210 ------- 0 0.0 3.0 22 22
- 1.08406 2 3 cbr 210 ------- 0 0.0 3.0 22 22
+ 1.08625 0 2 cbr 210 ------- 0 0.0 3.0 23 23
- 1.08625 0 2 cbr 210 ------- 0 0.0 3.0 23 23
r 1.08781 0 2 cbr 210 ------- 0 0.0 3.0 23 23
+ 1.08781 2 3 cbr 210 ------- 0 0.0 3.0 23 23
- 1.08781 2 3 cbr 210 ------- 0 0.0 3.0 23 23
+ 1.09 0 2 cbr 210 ------- 0 0.0 3.0 24 24
- 1.09 0 2 cbr 210 ------- 0 0.0 3.0 24 24
r 1.09156 0 2 cbr 210 ------- 0 0.0 3.0 24 24
+ 1.09156 2 3 cbr 210 ------- 0 0.0 3.0 24 24
- 1.09156 2 3 cbr 210 ------- 0 0.0 3.0 24 24
+ 1.09375 0 2 cbr 210 ------- 0 0.0 3.0 25 25
- 1.09375 0 2 cbr 210 ------- 0 0.0 3.0 25 25
r 1.09531 0 2 cbr 210 ------- 0 0.0 3.0 25 25
+ 1.09531 2 3 cbr 210 ------- 0 0.0 3.0 25 25
- 1.09531 2 3 cbr 210 ------- 0 0.0 3.0 25 25
+ 1.0975 0 2 cbr 210 ------- 0 0.0 3.0 26 26
- 1.0975 0 2 cbr 210 ------- 0 0.0 3.0 26 26
r 1.09906 0 2 cbr 210 ------- 0 0.0 3.0 26 26
+ 1.09906 2 3 cbr 210 ------- 0 0.0 3.0 26 26
- 1.09906 2 3 cbr 210 ------- 0 0.0 3.0 26 26
+ 1.10125 0 2 cbr 210 ------- 0 0.0 3.0 27 27
- 1.10125 0 2 cbr 210 ------- 0 0.0 3.0 27 27
r 1.10268 2 3 cbr 210 ------- 0 0.0 3.0 0 0
r 1.10281 0 2 cbr 210 ------- 0 0.0 3.0 27 27
+ 1.10281 2 3 cbr 210 ------- 0 0.0 3.0 27 27
- 1.10281 2 3 cbr 210 ------- 0 0.0 3.0 27 27
+ 1.105 0 2 cbr 210 ------- 0 0.0 3.0 28 28
- 1.105 0 2 cbr 210 ------- 0 0.0 3.0 28 28
r 1.10643 2 3 cbr 210 ------- 0 0.0 3.0 1 1
r 1.10656 0 2 cbr 210 ------- 0 0.0 3.0 28 28
+ 1.10656 2 3 cbr 210 ------- 0 0.0 3.0 28 28
- 1.10656 2 3 cbr 210 ------- 0 0.0 3.0 28 28
+ 1.10875 0 2 cbr 210 ------- 0 0.0 3.0 29 29
- 1.10875 0 2 cbr 210 ------- 0 0.0 3.0 29 29
r 1.11018 2 3 cbr 210 ------- 0 0.0 3.0 2 2
r 1.11031 0 2 cbr 210 ------- 0 0.0 3.0 29 29
+ 1.11031 2 3 cbr 210 ------- 0 0.0 3.0 29 29
- 1.11031 2 3 cbr 210 ------- 0 0.0 3.0 29 29
+ 1.1125 0 2 cbr 210 ------- 0 0.0 3.0 30 30
- 1.1125 0 2 cbr 210 ------- 0 0.0 3.0 30 30
r 1.11393 2 3 cbr 210 ------- 0 0.0 3.0 3 3
r 1.11406 0 2 cbr 210 ------- 0 0.0 3.0 30 30
+ 1.11406 2 3 cbr 210 ------- 0 0.0 3.0 30 30
- 1.11406 2 3 cbr 210 ------- 0 0.0 3.0 30 30
+ 1.11625 0 2 cbr 210 ------- 0 0.0 3.0 31 31
- 1.11625 0 2 cbr 210 ------- 0 0.0 3.0 31 31
r 1.11768 2 3 cbr 210 ------- 0 0.0 3.0 4 4
r 1.11781 0 2 cbr 210 ------- 0 0.0 3.0 31 31
+ 1.11781 2 3 cbr 210 ------- 0 0.0 3.0 31 31
- 1.11781 2 3 cbr 210 ------- 0 0.0 3.0 31 31
+ 1.12 0 2 cbr 210 ------- 0 0.0 3.0 32 32
- 1.12 0 2 cbr 210 ------- 0 0.0 3.0 32 32
r 1.12143 2 3 cbr 210 ------- 0 0.0 3.0 5 5
r 1.12156 0 2 cbr 210 ------- 0 0.0 3.0 32 32
+ 1.12156 2 3 cbr 210 ------- 0 0.0 3.0 32 32
- 1.12156 2 3 cbr 210 ------- 0 0.0 3.0 32 32
+ 1.12375 0 2 cbr 210 ------- 0 0.0 3.0 33 33
- 1.12375 0 2 cbr 210 ------- 0 0.0 3.0 33 33
r 1.12518 2 3 cbr 210 ------- 0 0.0 3.0 6 6
r 1.12531 0 2 cbr 210 ------- 0 0.0 3.0 33 33
+ 1.12531 2 3 cbr 210 ------- 0 0.0 3.0 33 33
- 1.12531 2 3 cbr 210 ------- 0 0.0 3.0 33 33
+ 1.1275 0 2 cbr 210 ------- 0 0.0 3.0 34 34
- 1.1275 0 2 cbr 210 ------- 0 0.0 3.0 34 34
r 1.12893 2 3 cbr 210 ------- 0 0.0 3.0 7 7
r 1.12906 0 2 cbr 210 ------- 0 0.0 3.0 34 34
+ 1.12906 2 3 cbr 210 ------- 0 0.0 3.0 34 34
- 1.12906 2 3 cbr 210 ------- 0 0.0 3.0 34 34
+ 1.13125 0 2 cbr 210 ------- 0 0.0 3.0 35 35
- 1.13125 0 2 cbr 210 ------- 0 0.0 3.0 35 35
r 1.13268 2 3 cbr 210 ------- 0 0.0 3.0 8 8
r 1.13281 0 2 cbr 210 ------- 0 0.0 3.0 35 35
+ 1.13281 2 3 cbr 210 ------- 0 0.0 3.0 35 35
- 1.13281 2 3 cbr 210 ------- 0 0.0 3.0 35 35
+ 1.135 0 2 cbr 210 ------- 0 0.0 3.0 36 36
- 1.135 0 2 cbr 210 ------- 0 0.0 3.0 36 36
r 1.13643 2 3 cbr 210 ------- 0 0.0 3.0 9 9
r 1.13656 0 2 cbr 210 ------- 0 0.0 3.0 36 36
+ 1.13656 2 3 cbr 210 ------- 0 0.0 3.0 36 36
- 1.13656 2 3 cbr 210 ------- 0 0.0 3.0 36 36
+ 1.13875 0 2 cbr 210 ------- 0 0.0 3.0 37 37
- 1.13875 0 2 cbr 210 ------- 0 0.0 3.0 37 37
r 1.14018 2 3 cbr 210 ------- 0 0.0 3.0 10 10
r 1.14031 0 2 cbr 210 ------- 0 0.0 3.0 37 37
+ 1.14031 2 3 cbr 210 ------- 0 0.0 3.0 37 37
- 1.14031 2 3 cbr 210 ------- 0 0.0 3.0 37 37
+ 1.1425 0 2 cbr 210 ------- 0 0.0 3.0 38 38
- 1.1425 0 2 cbr 210 ------- 0 0.0 3.0 38 38
r 1.14393 2 3 cbr 210 ------- 0 0.0 3.0 11 11
r 1.14406 0 2 cbr 210 ------- 0 0.0 3.0 38 38
+ 1.14406 2 3 cbr 210 ------- 0 0.0 3.0 38 38
- 1.14406 2 3 cbr 210 ------- 0 0.0 3.0 38 38
+ 1.14625 0 2 cbr 210 ------- 0 0.0 3.0 39 39
- 1.14625 0 2 cbr 210 ------- 0 0.0 3.0 39 39
r 1.14768 2 3 cbr 210 ------- 0 0.0 3.0 12 12
r 1.14781 0 2 cbr 210 ------- 0 0.0 3.0 39 39
+ 1.14781 2 3 cbr 210 ------- 0 0.0 3.0 39 39
- 1.14781 2 3 cbr 210 ------- 0 0.0 3.0 39 39
+ 1.15 0 2 cbr 210 ------- 0 0.0 3.0 40 40
- 1.15 0 2 cbr 210 ------- 0 0.0 3.0 40 40
r 1.15143 2 3 cbr 210 ------- 0 0.0 3.0 13 13
r 1.15156 0 2 cbr 210 ------- 0 0.0 3.0 40 40
+ 1.15156 2 3 cbr 210 ------- 0 0.0 3.0 40 40
- 1.15156 2 3 cbr 210 ------- 0 0.0 3.0 40 40
+ 1.15375 0 2 cbr 210 ------- 0 0.0 3.0 41 41
- 1.15375 0 2 cbr 210 ------- 0 0.0 3.0 41 41
r 1.15518 2 3 cbr 210 ------- 0 0.0 3.0 14 14
r 1.15531 0 2 cbr 210 ------- 0 0.0 3.0 41 41
+ 1.15531 2 3 cbr 210 ------- 0 0.0 3.0 41 41
- 1.15531 2 3 cbr 210 ------- 0 0.0 3.0 41 41
+ 1.1575 0 2 cbr 210 ------- 0 0.0 3.0 42 42
- 1.1575 0 2 cbr 210 ------- 0 0.0 3.0 42 42
r 1.15893 2 3 cbr 210 ------- 0 0.0 3.0 15 15
r 1.15906 0 2 cbr 210 ------- 0 0.0 3.0 42 42
+ 1.15906 2 3 cbr 210 ------- 0 0.0 3.0 42 42
- 1.15906 2 3 cbr 210 ------- 0 0.0 3.0 42 42
+ 1.16125 0 2 cbr 210 ------- 0 0.0 3.0 43 43
- 1.16125 0 2 cbr 210 ------- 0 0.0 3.0 43 43
r 1.16268 2 3 cbr 210 ------- 0 0.0 3.0 16 16
r 1.16281 0 2 cbr 210 ------- 0 0.0 3.0 43 43
+ 1.16281 2 3 cbr 210 ------- 0 0.0 3.0 43 43
- 1.16281 2 3 cbr 210 ------- 0 0.0 3.0 43 43
+ 1.165 0 2 cbr 210 ------- 0 0.0 3.0 44 44
- 1.165 0 2 cbr 210 ------- 0 0.0 3.0 44 44
r 1.16643 2 3 cbr 210 ------- 0 0.0 3.0 17 17
r 1.16656 0 2 cbr 210 ------- 0 0.0 3.0 44 44
+ 1.16656 2 3 cbr 210 ------- 0 0.0 3.0 44 44
- 1.16656 2 3 cbr 210 ------- 0 0.0 3.0 44 44
+ 1.16875 0 2 cbr 210 ------- 0 0.0 3.0 45 45
- 1.16875 0 2 cbr 210 ------- 0 0.0 3.0 45 45
r 1.17018 2 3 cbr 210 ------- 0 0.0 3.0 18 18
r 1.17031 0 2 cbr 210 ------- 0 0.0 3.0 45 45
+ 1.17031 2 3 cbr 210 ------- 0 0.0 3.0 45 45
- 1.17031 2 3 cbr 210 ------- 0 0.0 3.0 45 45
+ 1.1725 0 2 cbr 210 ------- 0 0.0 3.0 46 46
- 1.1725 0 2 cbr 210 ------- 0 0.0 3.0 46 46
r 1.17393 2 3 cbr 210 ------- 0 0.0 3.0 19 19
r 1.17406 0 2 cbr 210 ------- 0 0.0 3.0 46 46
+ 1.17406 2 3 cbr 210 ------- 0 0.0 3.0 46 46
- 1.17406 2 3 cbr 210 ------- 0 0.0 3.0 46 46
+ 1.17625 0 2 cbr 210 ------- 0 0.0 3.0 47 47
- 1.17625 0 2 cbr 210 ------- 0 0.0 3.0 47 47
r 1.17768 2 3 cbr 210 ------- 0 0.0 3.0 20 20
r 1.17781 0 2 cbr 210 ------- 0 0.0 3.0 47 47
+ 1.17781 2 3 cbr 210 ------- 0 0.0 3.0 47 47
- 1.17781 2 3 cbr 210 ------- 0 0.0 3.0 47 47
+ 1.18 0 2 cbr 210 ------- 0 0.0 3.0 48 48
- 1.18 0 2 cbr 210 ------- 0 0.0 3.0 48 48
r 1.18143 2 3 cbr 210 ------- 0 0.0 3.0 21 21
r 1.18156 0 2 cbr 210 ------- 0 0.0 3.0 48 48
+ 1.18156 2 3 cbr 210 ------- 0 0.0 3.0 48 48
- 1.18156 2 3 cbr 210 ------- 0 0.0 3.0 48 48
+ 1.18375 0 2 cbr 210 ------- 0 0.0 3.0 49 49
- 1.18375 0 2 cbr 210 ------- 0 0.0 3.0 49 49
r 1.18518 2 3 cbr 210 ------- 0 0.0 3.0 22 22
r 1.18531 0 2 cbr 210 ------- 0 0.0 3.0 49 49
+ 1.18531 2 3 cbr 210 ------- 0 0.0 3.0 49 49
- 1.18531 2 3 cbr 210 ------- 0 0.0 3.0 49 49
+ 1.1875 0 2 cbr 210 ------- 0 0.0 3.0 50 50
- 1.1875 0 2 cbr 210 ------- 0 0.0 3.0 50 50
r 1.18893 2 3 cbr 210 ------- 0 0.0 3.0 23 23
r 1.18906 0 2 cbr 210 ------- 0 0.0 3.0 50 50
+ 1.18906 2 3 cbr 210 ------- 0 0.0 3.0 50 50
- 1.18906 2 3 cbr 210 ------- 0 0.0 3.0 50 50
+ 1.19125 0 2 cbr 210 ------- 0 0.0 3.0 51 51
- 1.19125 0 2 cbr 210 ------- 0 0.0 3.0 51 51
r 1.19268 2 3 cbr 210 ------- 0 0.0 3.0 24 24
r 1.19281 0 2 cbr 210 ------- 0 0.0 3.0 51 51
+ 1.19281 2 3 cbr 210 ------- 0 0.0 3.0 51 51
- 1.19281 2 3 cbr 210 ------- 0 0.0 3.0 51 51
+ 1.195 0 2 cbr 210 ------- 0 0.0 3.0 52 52
- 1.195 0 2 cbr 210 ------- 0 0.0 3.0 52 52
r 1.19643 2 3 cbr 210 ------- 0 0.0 3.0 25 25
r 1.19656 0 2 cbr 210 ------- 0 0.0 3.0 52 52
+ 1.19656 2 3 cbr 210 ------- 0 0.0 3.0 52 52
- 1.19656 2 3 cbr 210 ------- 0 0.0 3.0 52 52
+ 1.19875 0 2 cbr 210 ------- 0 0.0 3.0 53 53
- 1.19875 0 2 cbr 210 ------- 0 0.0 3.0 53 53
r 1.20018 2 3 cbr 210 ------- 0 0.0 3.0 26 26
r 1.20031 0 2 cbr 210 ------- 0 0.0 3.0 53 53
+ 1.20031 2 3 cbr 210 ------- 0 0.0 3.0 53 53
- 1.20031 2 3 cbr 210 ------- 0 0.0 3.0 53 53
+ 1.2025 0 2 cbr 210 ------- 0 0.0 3.0 54 54
- 1.2025 0 2 cbr 210 ------- 0 0.0 3.0 54 54
r 1.20393 2 3 cbr 210 ------- 0 0.0 3.0 27 27
r 1.20406 0 2 cbr 210 ------- 0 0.0 3.0 54 54
+ 1.20406 2 3 cbr 210 ------- 0 0.0 3.0 54 54
- 1.20406 2 3 cbr 210 ------- 0 0.0 3.0 54 54
+ 1.20625 0 2 cbr 210 ------- 0 0.0 3.0 55 55
- 1.20625 0 2 cbr 210 ------- 0 0.0 3.0 55 55
r 1.20768 2 3 cbr 210 ------- 0 0.0 3.0 28 28
r 1.20781 0 2 cbr 210 ------- 0 0.0 3.0 55 55
+ 1.20781 2 3 cbr 210 ------- 0 0.0 3.0 55 55
- 1.20781 2 3 cbr 210 ------- 0 0.0 3.0 55 55
+ 1.21 0 2 cbr 210 ------- 0 0.0 3.0 56 56
- 1.21 0 2 cbr 210 ------- 0 0.0 3.0 56 56
r 1.21143 2 3 cbr 210 ------- 0 0.0 3.0 29 29
r 1.21156 0 2 cbr 210 ------- 0 0.0 3.0 56 56
+ 1.21156 2 3 cbr 210 ------- 0 0.0 3.0 56 56
- 1.21156 2 3 cbr 210 ------- 0 0.0 3.0 56 56
+ 1.21375 0 2 cbr 210 ------- 0 0.0 3.0 57 57
- 1.21375 0 2 cbr 210 ------- 0 0.0 3.0 57 57
r 1.21518 2 3 cbr 210 ------- 0 0.0 3.0 30 30
r 1.21531 0 2 cbr 210 ------- 0 0.0 3.0 57 57
+ 1.21531 2 3 cbr 210 ------- 0 0.0 3.0 57 57
- 1.21531 2 3 cbr 210 ------- 0 0.0 3.0 57 57
+ 1.2175 0 2 cbr 210 ------- 0 0.0 3.0 58 58
- 1.2175 0 2 cbr 210 ------- 0 0.0 3.0 58 58
r 1.21893 2 3 cbr 210 ------- 0 0.0 3.0 31 31
r 1.21906 0 2 cbr 210 ------- 0 0.0 3.0 58 58
+ 1.21906 2 3 cbr 210 ------- 0 0.0 3.0 58 58
- 1.21906 2 3 cbr 210 ------- 0 0.0 3.0 58 58
+ 1.22125 0 2 cbr 210 ------- 0 0.0 3.0 59 59
- 1.22125 0 2 cbr 210 ------- 0 0.0 3.0 59 59
r 1.22268 2 3 cbr 210 ------- 0 0.0 3.0 32 32
r 1.22281 0 2 cbr 210 ------- 0 0.0 3.0 59 59
+ 1.22281 2 3 cbr 210 ------- 0 0.0 3.0 59 59
- 1.22281 2 3 cbr 210 ------- 0 0.0 3.0 59 59
+ 1.225 0 2 cbr 210 ------- 0 0.0 3.0 60 60
- 1.225 0 2 cbr 210 ------- 0 0.0 3.0 60 60
r 1.22643 2 3 cbr 210 ------- 0 0.0 3.0 33 33
r 1.22656 0 2 cbr 210 ------- 0 0.0 3.0 60 60
+ 1.22656 2 3 cbr 210 ------- 0 0.0 3.0 60 60
- 1.22656 2 3 cbr 210 ------- 0 0.0 3.0 60 60
+ 1.22875 0 2 cbr 210 ------- 0 0.0 3.0 61 61
- 1.22875 0 2 cbr 210 ------- 0 0.0 3.0 61 61
r 1.23018 2 3 cbr 210 ------- 0 0.0 3.0 34 34
r 1.23031 0 2 cbr 210 ------- 0 0.0 3.0 61 61
+ 1.23031 2 3 cbr 210 ------- 0 0.0 3.0 61 61
- 1.23031 2 3 cbr 210 ------- 0 0.0 3.0 61 61
+ 1.2325 0 2 cbr 210 ------- 0 0.0 3.0 62 62
- 1.2325 0 2 cbr 210 ------- 0 0.0 3.0 62 62
r 1.23393 2 3 cbr 210 ------- 0 0.0 3.0 35 35
r 1.23406 0 2 cbr 210 ------- 0 0.0 3.0 62 62
+ 1.23406 2 3 cbr 210 ------- 0 0.0 3.0 62 62
- 1.23406 2 3 cbr 210 ------- 0 0.0 3.0 62 62
+ 1.23625 0 2 cbr 210 ------- 0 0.0 3.0 63 63
- 1.23625 0 2 cbr 210 ------- 0 0.0 3.0 63 63
r 1.23768 2 3 cbr 210 ------- 0 0.0 3.0 36 36
r 1.23781 0 2 cbr 210 ------- 0 0.0 3.0 63 63
+ 1.23781 2 3 cbr 210 ------- 0 0.0 3.0 63 63
- 1.23781 2 3 cbr 210 ------- 0 0.0 3.0 63 63
+ 1.24 0 2 cbr 210 ------- 0 0.0 3.0 64 64
- 1.24 0 2 cbr 210 ------- 0 0.0 3.0 64 64
r 1.24143 2 3 cbr 210 ------- 0 0.0 3.0 37 37
r 1.24156 0 2 cbr 210 ------- 0 0.0 3.0 64 64
+ 1.24156 2 3 cbr 210 ------- 0 0.0 3.0 64 64
- 1.24156 2 3 cbr 210 ------- 0 0.0 3.0 64 64
+ 1.24375 0 2 cbr 210 ------- 0 0.0 3.0 65 65
- 1.24375 0 2 cbr 210 ------- 0 0.0 3.0 65 65
r 1.24518 2 3 cbr 210 ------- 0 0.0 3.0 38 38
r 1.24531 0 2 cbr 210 ------- 0 0.0 3.0 65 65
+ 1.24531 2 3 cbr 210 ------- 0 0.0 3.0 65 65
- 1.24531 2 3 cbr 210 ------- 0 0.0 3.0 65 65
+ 1.2475 0 2 cbr 210 ------- 0 0.0 3.0 66 66
- 1.2475 0 2 cbr 210 ------- 0 0.0 3.0 66 66
r 1.24893 2 3 cbr 210 ------- 0 0.0 3.0 39 39
r 1.24906 0 2 cbr 210 ------- 0 0.0 3.0 66 66
+ 1.24906 2 3 cbr 210 ------- 0 0.0 3.0 66 66
- 1.24906 2 3 cbr 210 ------- 0 0.0 3.0 66 66
+ 1.25125 0 2 cbr 210 ------- 0 0.0 3.0 67 67
- 1.25125 0 2 cbr 210 ------- 0 0.0 3.0 67 67
r 1.25268 2 3 cbr 210 ------- 0 0.0 3.0 40 40
r 1.25281 0 2 cbr 210 ------- 0 0.0 3.0 67 67
+ 1.25281 2 3 cbr 210 ------- 0 0.0 3.0 67 67
- 1.25281 2 3 cbr 210 ------- 0 0.0 3.0 67 67
+ 1.255 0 2 cbr 210 ------- 0 0.0 3.0 68 68
- 1.255 0 2 cbr 210 ------- 0 0.0 3.0 68 68
r 1.25643 2 3 cbr 210 ------- 0 0.0 3.0 41 41
r 1.25656 0 2 cbr 210 ------- 0 0.0 3.0 68 68
+ 1.25656 2 3 cbr 210 ------- 0 0.0 3.0 68 68
- 1.25656 2 3 cbr 210 ------- 0 0.0 3.0 68 68
+ 1.25875 0 2 cbr 210 ------- 0 0.0 3.0 69 69
- 1.25875 0 2 cbr 210 ------- 0 0.0 3.0 69 69
r 1.26018 2 3 cbr 210 ------- 0 0.0 3.0 42 42
r 1.26031 0 2 cbr 210 ------- 0 0.0 3.0 69 69
+ 1.26031 2 3 cbr 210 ------- 0 0.0 3.0 69 69
- 1.26031 2 3 cbr 210 ------- 0 0.0 3.0 69 69
+ 1.2625 0 2 cbr 210 ------- 0 0.0 3.0 70 70
- 1.2625 0 2 cbr 210 ------- 0 0.0 3.0 70 70
r 1.26393 2 3 cbr 210 ------- 0 0.0 3.0 43 43
r 1.26406 0 2 cbr 210 ------- 0 0.0 3.0 70 70
+ 1.26406 2 3 cbr 210 ------- 0 0.0 3.0 70 70
- 1.26406 2 3 cbr 210 ------- 0 0.0 3.0 70 70
+ 1.26625 0 2 cbr 210 ------- 0 0.0 3.0 71 71
- 1.26625 0 2 cbr 210 ------- 0 0.0 3.0 71 71
r 1.26768 2 3 cbr 210 ------- 0 0.0 3.0 44 44
r 1.26781 0 2 cbr 210 ------- 0 0.0 3.0 71 71
+ 1.26781 2 3 cbr 210 ------- 0 0.0 3.0 71 71
- 1.26781 2 3 cbr 210 ------- 0 0.0 3.0 71 71
+ 1.27 0 2 cbr 210 ------- 0 0.0 3.0 72 72
- 1.27 0 2 cbr 210 ------- 0 0.0 3.0 72 72
r 1.27143 2 3 cbr 210 ------- 0 0.0 3.0 45 45
r 1.27156 0 2 cbr 210 ------- 0 0.0 3.0 72 72
+ 1.27156 2 3 cbr 210 ------- 0 0.0 3.0 72 72
- 1.27156 2 3 cbr 210 ------- 0 0.0 3.0 72 72
+ 1.27375 0 2 cbr 210 ------- 0 0.0 3.0 73 73
- 1.27375 0 2 cbr 210 ------- 0 0.0 3.0 73 73
r 1.27518 2 3 cbr 210 ------- 0 0.0 3.0 46 46
r 1.27531 0 2 cbr 210 ------- 0 0.0 3.0 73 73
+ 1.27531 2 3 cbr 210 ------- 0 0.0 3.0 73 73
- 1.27531 2 3 cbr 210 ------- 0 0.0 3.0 73 73
+ 1.2775 0 2 cbr 210 ------- 0 0.0 3.0 74 74
- 1.2775 0 2 cbr 210 ------- 0 0.0 3.0 74 74
r 1.27893 2 3 cbr 210 ------- 0 0.0 3.0 47 47
r 1.27906 0 2 cbr 210 ------- 0 0.0 3.0 74 74
+ 1.27906 2 3 cbr 210 ------- 0 0.0 3.0 74 74
- 1.27906 2 3 cbr 210 ------- 0 0.0 3.0 74 74
+ 1.28125 0 2 cbr 210 ------- 0 0.0 3.0 75 75
- 1.28125 0 2 cbr 210 ------- 0 0.0 3.0 75 75
r 1.28268 2 3 cbr 210 ------- 0 0.0 3.0 48 48
r 1.28281 0 2 cbr 210 ------- 0 0.0 3.0 75 75
+ 1.28281 2 3 cbr 210 ------- 0 0.0 3.0 75 75
- 1.28281 2 3 cbr 210 ------- 0 0.0 3.0 75 75
+ 1.285 0 2 cbr 210 ------- 0 0.0 3.0 76 76
- 1.285 0 2 cbr 210 ------- 0 0.0 3.0 76 76
r 1.28643 2 3 cbr 210 ------- 0 0.0 3.0 49 49
r 1.28656 0 2 cbr 210 ------- 0 0.0 3.0 76 76
+ 1.28656 2 3 cbr 210 ------- 0 0.0 3.0 76 76
- 1.28656 2 3 cbr 210 ------- 0 0.0 3.0 76 76
+ 1.28875 0 2 cbr 210 ------- 0 0.0 3.0 77 77
- 1.28875 0 2 cbr 210 ------- 0 0.0 3.0 77 77
r 1.29018 2 3 cbr 210 ------- 0 0.0 3.0 50 50
r 1.29031 0 2 cbr 210 ------- 0 0.0 3.0 77 77
+ 1.29031 2 3 cbr 210 ------- 0 0.0 3.0 77 77
- 1.29031 2 3 cbr 210 ------- 0 0.0 3.0 77 77
+ 1.2925 0 2 cbr 210 ------- 0 0.0 3.0 78 78
- 1.2925 0 2 cbr 210 ------- 0 0.0 3.0 78 78
r 1.29393 2 3 cbr 210 ------- 0 0.0 3.0 51 51
r 1.29406 0 2 cbr 210 ------- 0 0.0 3.0 78 78
+ 1.29406 2 3 cbr 210 ------- 0 0.0 3.0 78 78
- 1.29406 2 3 cbr 210 ------- 0 0.0 3.0 78 78
+ 1.29625 0 2 cbr 210 ------- 0 0.0 3.0 79 79
- 1.29625 0 2 cbr 210 ------- 0 0.0 3.0 79 79
r 1.29768 2 3 cbr 210 ------- 0 0.0 3.0 52 52
r 1.29781 0 2 cbr 210 ------- 0 0.0 3.0 79 79
+ 1.29781 2 3 cbr 210 ------- 0 0.0 3.0 79 79
- 1.29781 2 3 cbr 210 ------- 0 0.0 3.0 79 79
+ 1.3 0 2 cbr 210 ------- 0 0.0 3.0 80 80
- 1.3 0 2 cbr 210 ------- 0 0.0 3.0 80 80
r 1.30143 2 3 cbr 210 ------- 0 0.0 3.0 53 53
r 1.30156 0 2 cbr 210 ------- 0 0.0 3.0 80 80
+ 1.30156 2 3 cbr 210 ------- 0 0.0 3.0 80 80
- 1.30156 2 3 cbr 210 ------- 0 0.0 3.0 80 80
+ 1.30375 0 2 cbr 210 ------- 0 0.0 3.0 81 81
- 1.30375 0 2 cbr 210 ------- 0 0.0 3.0 81 81
r 1.30518 2 3 cbr 210 ------- 0 0.0 3.0 54 54
r 1.30531 0 2 cbr 210 ------- 0 0.0 3.0 81 81
+ 1.30531 2 3 cbr 210 ------- 0 0.0 3.0 81 81
- 1.30531 2 3 cbr 210 ------- 0 0.0 3.0 81 81
+ 1.3075 0 2 cbr 210 ------- 0 0.0 3.0 82 82
- 1.3075 0 2 cbr 210 ------- 0 0.0 3.0 82 82
r 1.30893 2 3 cbr 210 ------- 0 0.0 3.0 55 55
r 1.30906 0 2 cbr 210 ------- 0 0.0 3.0 82 82
+ 1.30906 2 3 cbr 210 ------- 0 0.0 3.0 82 82
- 1.30906 2 3 cbr 210 ------- 0 0.0 3.0 82 82
+ 1.31125 0 2 cbr 210 ------- 0 0.0 3.0 83 83
- 1.31125 0 2 cbr 210 ------- 0 0.0 3.0 83 83
r 1.31268 2 3 cbr 210 ------- 0 0.0 3.0 56 56
r 1.31281 0 2 cbr 210 ------- 0 0.0 3.0 83 83
+ 1.31281 2 3 cbr 210 ------- 0 0.0 3.0 83 83
- 1.31281 2 3 cbr 210 ------- 0 0.0 3.0 83 83
+ 1.315 0 2 cbr 210 ------- 0 0.0 3.0 84 84
- 1.315 0 2 cbr 210 ------- 0 0.0 3.0 84 84
r 1.31643 2 3 cbr 210 ------- 0 0.0 3.0 57 57
r 1.31656 0 2 cbr 210 ------- 0 0.0 3.0 84 84
+ 1.31656 2 3 cbr 210 ------- 0 0.0 3.0 84 84
- 1.31656 2 3 cbr 210 ------- 0 0.0 3.0 84 84
+ 1.31875 0 2 cbr 210 ------- 0 0.0 3.0 85 85
- 1.31875 0 2 cbr 210 ------- 0 0.0 3.0 85 85
r 1.32018 2 3 cbr 210 ------- 0 0.0 3.0 58 58
r 1.32031 0 2 cbr 210 ------- 0 0.0 3.0 85 85
+ 1.32031 2 3 cbr 210 ------- 0 0.0 3.0 85 85
- 1.32031 2 3 cbr 210 ------- 0 0.0 3.0 85 85
+ 1.3225 0 2 cbr 210 ------- 0 0.0 3.0 86 86
- 1.3225 0 2 cbr 210 ------- 0 0.0 3.0 86 86
r 1.32393 2 3 cbr 210 ------- 0 0.0 3.0 59 59
r 1.32406 0 2 cbr 210 ------- 0 0.0 3.0 86 86
+ 1.32406 2 3 cbr 210 ------- 0 0.0 3.0 86 86
- 1.32406 2 3 cbr 210 ------- 0 0.0 3.0 86 86
+ 1.32625 0 2 cbr 210 ------- 0 0.0 3.0 87 87
- 1.32625 0 2 cbr 210 ------- 0 0.0 3.0 87 87
r 1.32768 2 3 cbr 210 ------- 0 0.0 3.0 60 60
r 1.32781 0 2 cbr 210 ------- 0 0.0 3.0 87 87
+ 1.32781 2 3 cbr 210 ------- 0 0.0 3.0 87 87
- 1.32781 2 3 cbr 210 ------- 0 0.0 3.0 87 87
+ 1.33 0 2 cbr 210 ------- 0 0.0 3.0 88 88
- 1.33 0 2 cbr 210 ------- 0 0.0 3.0 88 88
r 1.33143 2 3 cbr 210 ------- 0 0.0 3.0 61 61
r 1.33156 0 2 cbr 210 ------- 0 0.0 3.0 88 88
+ 1.33156 2 3 cbr 210 ------- 0 0.0 3.0 88 88
- 1.33156 2 3 cbr 210 ------- 0 0.0 3.0 88 88
+ 1.33375 0 2 cbr 210 ------- 0 0.0 3.0 89 89
- 1.33375 0 2 cbr 210 ------- 0 0.0 3.0 89 89
r 1.33518 2 3 cbr 210 ------- 0 0.0 3.0 62 62
r 1.33531 0 2 cbr 210 ------- 0 0.0 3.0 89 89
+ 1.33531 2 3 cbr 210 ------- 0 0.0 3.0 89 89
- 1.33531 2 3 cbr 210 ------- 0 0.0 3.0 89 89
+ 1.3375 0 2 cbr 210 ------- 0 0.0 3.0 90 90
- 1.3375 0 2 cbr 210 ------- 0 0.0 3.0 90 90
r 1.33893 2 3 cbr 210 ------- 0 0.0 3.0 63 63
r 1.33906 0 2 cbr 210 ------- 0 0.0 3.0 90 90
+ 1.33906 2 3 cbr 210 ------- 0 0.0 3.0 90 90
- 1.33906 2 3 cbr 210 ------- 0 0.0 3.0 90 90
+ 1.34125 0 2 cbr 210 ------- 0 0.0 3.0 91 91
- 1.34125 0 2 cbr 210 ------- 0 0.0 3.0 91 91
r 1.34268 2 3 cbr 210 ------- 0 0.0 3.0 64 64
r 1.34281 0 2 cbr 210 ------- 0 0.0 3.0 91 91
+ 1.34281 2 3 cbr 210 ------- 0 0.0 3.0 91 91
- 1.34281 2 3 cbr 210 ------- 0 0.0 3.0 91 91
+ 1.345 0 2 cbr 210 ------- 0 0.0 3.0 92 92
- 1.345 0 2 cbr 210 ------- 0 0.0 3.0 92 92
r 1.34643 2 3 cbr 210 ------- 0 0.0 3.0 65 65
r 1.34656 0 2 cbr 210 ------- 0 0.0 3.0 92 92
+ 1.34656 2 3 cbr 210 ------- 0 0.0 3.0 92 92
- 1.34656 2 3 cbr 210 ------- 0 0.0 3.0 92 92
+ 1.34875 0 2 cbr 210 ------- 0 0.0 3.0 93 93
- 1.34875 0 2 cbr 210 ------- 0 0.0 3.0 93 93
r 1.35018 2 3 cbr 210 ------- 0 0.0 3.0 66 66
r 1.35031 0 2 cbr 210 ------- 0 0.0 3.0 93 93
+ 1.35031 2 3 cbr 210 ------- 0 0.0 3.0 93 93
- 1.35031 2 3 cbr 210 ------- 0 0.0 3.0 93 93
+ 1.3525 0 2 cbr 210 ------- 0 0.0 3.0 94 94
- 1.3525 0 2 cbr 210 ------- 0 0.0 3.0 94 94
r 1.35393 2 3 cbr 210 ------- 0 0.0 3.0 67 67
r 1.35406 0 2 cbr 210 ------- 0 0.0 3.0 94 94
+ 1.35406 2 3 cbr 210 ------- 0 0.0 3.0 94 94
- 1.35406 2 3 cbr 210 ------- 0 0.0 3.0 94 94
+ 1.35625 0 2 cbr 210 ------- 0 0.0 3.0 95 95
- 1.35625 0 2 cbr 210 ------- 0 0.0 3.0 95 95
r 1.35768 2 3 cbr 210 ------- 0 0.0 3.0 68 68
r 1.35781 0 2 cbr 210 ------- 0 0.0 3.0 95 95
+ 1.35781 2 3 cbr 210 ------- 0 0.0 3.0 95 95
- 1.35781 2 3 cbr 210 ------- 0 0.0 3.0 95 95
+ 1.36 0 2 cbr 210 ------- 0 0.0 3.0 96 96
- 1.36 0 2 cbr 210 ------- 0 0.0 3.0 96 96
r 1.36143 2 3 cbr 210 ------- 0 0.0 3.0 69 69
r 1.36156 0 2 cbr 210 ------- 0 0.0 3.0 96 96
+ 1.36156 2 3 cbr 210 ------- 0 0.0 3.0 96 96
- 1.36156 2 3 cbr 210 ------- 0 0.0 3.0 96 96
+ 1.36375 0 2 cbr 210 ------- 0 0.0 3.0 97 97
- 1.36375 0 2 cbr 210 ------- 0 0.0 3.0 97 97
r 1.36518 2 3 cbr 210 ------- 0 0.0 3.0 70 70
r 1.36531 0 2 cbr 210 ------- 0 0.0 3.0 97 97
+ 1.36531 2 3 cbr 210 ------- 0 0.0 3.0 97 97
- 1.36531 2 3 cbr 210 ------- 0 0.0 3.0 97 97
+ 1.3675 0 2 cbr 210 ------- 0 0.0 3.0 98 98
- 1.3675 0 2 cbr 210 ------- 0 0.0 3.0 98 98
r 1.36893 2 3 cbr 210 ------- 0 0.0 3.0 71 71
r 1.36906 0 2 cbr 210 ------- 0 0.0 3.0 98 98
+ 1.36906 2 3 cbr 210 ------- 0 0.0 3.0 98 98
- 1.36906 2 3 cbr 210 ------- 0 0.0 3.0 98 98
+ 1.37125 0 2 cbr 210 ------- 0 0.0 3.0 99 99
- 1.37125 0 2 cbr 210 ------- 0 0.0 3.0 99 99
r 1.37268 2 3 cbr 210 ------- 0 0.0 3.0 72 72
r 1.37281 0 2 cbr 210 ------- 0 0.0 3.0 99 99
+ 1.37281 2 3 cbr 210 ------- 0 0.0 3.0 99 99
- 1.37281 2 3 cbr 210 ------- 0 0.0 3.0 99 99
+ 1.375 0 2 cbr 210 ------- 0 0.0 3.0 100 100
- 1.375 0 2 cbr 210 ------- 0 0.0 3.0 100 100
r 1.37643 2 3 cbr 210 ------- 0 0.0 3.0 73 73
r 1.37656 0 2 cbr 210 ------- 0 0.0 3.0 100 100
+ 1.37656 2 3 cbr 210 ------- 0 0.0 3.0 100 100
- 1.37656 2 3 cbr 210 ------- 0 0.0 3.0 100 100
+ 1.37875 0 2 cbr 210 ------- 0 0.0 3.0 101 101
- 1.37875 0 2 cbr 210 ------- 0 0.0 3.0 101 101
r 1.38018 2 3 cbr 210 ------- 0 0.0 3.0 74 74
r 1.38031 0 2 cbr 210 ------- 0 0.0 3.0 101 101
+ 1.38031 2 3 cbr 210 ------- 0 0.0 3.0 101 101
- 1.38031 2 3 cbr 210 ------- 0 0.0 3.0 101 101
+ 1.3825 0 2 cbr 210 ------- 0 0.0 3.0 102 102
- 1.3825 0 2 cbr 210 ------- 0 0.0 3.0 102 102
r 1.38393 2 3 cbr 210 ------- 0 0.0 3.0 75 75
r 1.38406 0 2 cbr 210 ------- 0 0.0 3.0 102 102
+ 1.38406 2 3 cbr 210 ------- 0 0.0 3.0 102 102
- 1.38406 2 3 cbr 210 ------- 0 0.0 3.0 102 102
+ 1.38625 0 2 cbr 210 ------- 0 0.0 3.0 103 103
- 1.38625 0 2 cbr 210 ------- 0 0.0 3.0 103 103
r 1.38768 2 3 cbr 210 ------- 0 0.0 3.0 76 76
r 1.38781 0 2 cbr 210 ------- 0 0.0 3.0 103 103
+ 1.38781 2 3 cbr 210 ------- 0 0.0 3.0 103 103
- 1.38781 2 3 cbr 210 ------- 0 0.0 3.0 103 103
+ 1.39 0 2 cbr 210 ------- 0 0.0 3.0 104 104
- 1.39 0 2 cbr 210 ------- 0 0.0 3.0 104 104
r 1.39143 2 3 cbr 210 ------- 0 0.0 3.0 77 77
r 1.39156 0 2 cbr 210 ------- 0 0.0 3.0 104 104
+ 1.39156 2 3 cbr 210 ------- 0 0.0 3.0 104 104
- 1.39156 2 3 cbr 210 ------- 0 0.0 3.0 104 104
+ 1.39375 0 2 cbr 210 ------- 0 0.0 3.0 105 105
- 1.39375 0 2 cbr 210 ------- 0 0.0 3.0 105 105
r 1.39518 2 3 cbr 210 ------- 0 0.0 3.0 78 78
r 1.39531 0 2 cbr 210 ------- 0 0.0 3.0 105 105
+ 1.39531 2 3 cbr 210 ------- 0 0.0 3.0 105 105
- 1.39531 2 3 cbr 210 ------- 0 0.0 3.0 105 105
+ 1.3975 0 2 cbr 210 ------- 0 0.0 3.0 106 106
- 1.3975 0 2 cbr 210 ------- 0 0.0 3.0 106 106
r 1.39893 2 3 cbr 210 ------- 0 0.0 3.0 79 79
r 1.39906 0 2 cbr 210 ------- 0 0.0 3.0 106 106
+ 1.39906 2 3 cbr 210 ------- 0 0.0 3.0 106 106
- 1.39906 2 3 cbr 210 ------- 0 0.0 3.0 106 106
+ 1.40125 0 2 cbr 210 ------- 0 0.0 3.0 107 107
- 1.40125 0 2 cbr 210 ------- 0 0.0 3.0 107 107
r 1.40268 2 3 cbr 210 ------- 0 0.0 3.0 80 80
r 1.40281 0 2 cbr 210 ------- 0 0.0 3.0 107 107
+ 1.40281 2 3 cbr 210 ------- 0 0.0 3.0 107 107
- 1.40281 2 3 cbr 210 ------- 0 0.0 3.0 107 107
+ 1.405 0 2 cbr 210 ------- 0 0.0 3.0 108 108
- 1.405 0 2 cbr 210 ------- 0 0.0 3.0 108 108
r 1.40643 2 3 cbr 210 ------- 0 0.0 3.0 81 81
r 1.40656 0 2 cbr 210 ------- 0 0.0 3.0 108 108
+ 1.40656 2 3 cbr 210 ------- 0 0.0 3.0 108 108
- 1.40656 2 3 cbr 210 ------- 0 0.0 3.0 108 108
+ 1.40875 0 2 cbr 210 ------- 0 0.0 3.0 109 109
- 1.40875 0 2 cbr 210 ------- 0 0.0 3.0 109 109
r 1.41018 2 3 cbr 210 ------- 0 0.0 3.0 82 82
r 1.41031 0 2 cbr 210 ------- 0 0.0 3.0 109 109
+ 1.41031 2 3 cbr 210 ------- 0 0.0 3.0 109 109
- 1.41031 2 3 cbr 210 ------- 0 0.0 3.0 109 109
+ 1.4125 0 2 cbr 210 ------- 0 0.0 3.0 110 110
- 1.4125 0 2 cbr 210 ------- 0 0.0 3.0 110 110
r 1.41393 2 3 cbr 210 ------- 0 0.0 3.0 83 83
r 1.41406 0 2 cbr 210 ------- 0 0.0 3.0 110 110
+ 1.41406 2 3 cbr 210 ------- 0 0.0 3.0 110 110
- 1.41406 2 3 cbr 210 ------- 0 0.0 3.0 110 110
+ 1.41625 0 2 cbr 210 ------- 0 0.0 3.0 111 111
- 1.41625 0 2 cbr 210 ------- 0 0.0 3.0 111 111
r 1.41768 2 3 cbr 210 ------- 0 0.0 3.0 84 84
r 1.41781 0 2 cbr 210 ------- 0 0.0 3.0 111 111
+ 1.41781 2 3 cbr 210 ------- 0 0.0 3.0 111 111
- 1.41781 2 3 cbr 210 ------- 0 0.0 3.0 111 111
+ 1.42 0 2 cbr 210 ------- 0 0.0 3.0 112 112
- 1.42 0 2 cbr 210 ------- 0 0.0 3.0 112 112
r 1.42143 2 3 cbr 210 ------- 0 0.0 3.0 85 85
r 1.42156 0 2 cbr 210 ------- 0 0.0 3.0 112 112
+ 1.42156 2 3 cbr 210 ------- 0 0.0 3.0 112 112
- 1.42156 2 3 cbr 210 ------- 0 0.0 3.0 112 112
+ 1.42375 0 2 cbr 210 ------- 0 0.0 3.0 113 113
- 1.42375 0 2 cbr 210 ------- 0 0.0 3.0 113 113
r 1.42518 2 3 cbr 210 ------- 0 0.0 3.0 86 86
r 1.42531 0 2 cbr 210 ------- 0 0.0 3.0 113 113
+ 1.42531 2 3 cbr 210 ------- 0 0.0 3.0 113 113