+ 0.101 0 2 ping 64 ------- 0 0.0 5.0 -1 0
- 0.101 0 2 ping 64 ------- 0 0.0 5.0 -1 0
+ 0.101 1 2 ping 64 ------- 0 1.0 4.0 -1 1
- 0.101 1 2 ping 64 ------- 0 1.0 4.0 -1 1
+ 0.102 0 2 ping 64 ------- 0 0.0 5.0 -1 2
- 0.102 0 2 ping 64 ------- 0 0.0 5.0 -1 2
+ 0.102 1 2 ping 64 ------- 0 1.0 4.0 -1 3
- 0.102 1 2 ping 64 ------- 0 1.0 4.0 -1 3
+ 0.103 0 2 ping 64 ------- 0 0.0 5.0 -1 4
- 0.103 0 2 ping 64 ------- 0 0.0 5.0 -1 4
+ 0.103 1 2 ping 64 ------- 0 1.0 4.0 -1 5
- 0.103 1 2 ping 64 ------- 0 1.0 4.0 -1 5
+ 0.104 0 2 ping 64 ------- 0 0.0 5.0 -1 6
- 0.104 0 2 ping 64 ------- 0 0.0 5.0 -1 6
+ 0.104 1 2 ping 64 ------- 0 1.0 4.0 -1 7
- 0.104 1 2 ping 64 ------- 0 1.0 4.0 -1 7
+ 0.105 0 2 ping 64 ------- 0 0.0 5.0 -1 8
- 0.105 0 2 ping 64 ------- 0 0.0 5.0 -1 8
+ 0.105 1 2 ping 64 ------- 0 1.0 4.0 -1 9
- 0.105 1 2 ping 64 ------- 0 1.0 4.0 -1 9
+ 0.106 0 2 ping 64 ------- 0 0.0 5.0 -1 10
- 0.106 0 2 ping 64 ------- 0 0.0 5.0 -1 10
+ 0.106 1 2 ping 64 ------- 0 1.0 4.0 -1 11
- 0.106 1 2 ping 64 ------- 0 1.0 4.0 -1 11
r 0.106128 0 2 ping 64 ------- 0 0.0 5.0 -1 0
+ 0.106128 2 3 ping 64 ------- 0 0.0 5.0 -1 0
- 0.106128 2 3 ping 64 ------- 0 0.0 5.0 -1 0
r 0.106128 1 2 ping 64 ------- 0 1.0 4.0 -1 1
+ 0.106128 2 3 ping 64 ------- 0 1.0 4.0 -1 1
- 0.106256 2 3 ping 64 ------- 0 1.0 4.0 -1 1
+ 0.107 0 2 ping 64 ------- 0 0.0 5.0 -1 12
- 0.107 0 2 ping 64 ------- 0 0.0 5.0 -1 12
+ 0.107 1 2 ping 64 ------- 0 1.0 4.0 -1 13
- 0.107 1 2 ping 64 ------- 0 1.0 4.0 -1 13
r 0.107128 0 2 ping 64 ------- 0 0.0 5.0 -1 2
+ 0.107128 2 3 ping 64 ------- 0 0.0 5.0 -1 2
- 0.107128 2 3 ping 64 ------- 0 0.0 5.0 -1 2
r 0.107128 1 2 ping 64 ------- 0 1.0 4.0 -1 3
+ 0.107128 2 3 ping 64 ------- 0 1.0 4.0 -1 3
- 0.107256 2 3 ping 64 ------- 0 1.0 4.0 -1 3
+ 0.108 0 2 ping 64 ------- 0 0.0 5.0 -1 14
- 0.108 0 2 ping 64 ------- 0 0.0 5.0 -1 14
+ 0.108 1 2 ping 64 ------- 0 1.0 4.0 -1 15
- 0.108 1 2 ping 64 ------- 0 1.0 4.0 -1 15
r 0.108128 0 2 ping 64 ------- 0 0.0 5.0 -1 4
+ 0.108128 2 3 ping 64 ------- 0 0.0 5.0 -1 4
- 0.108128 2 3 ping 64 ------- 0 0.0 5.0 -1 4
r 0.108128 1 2 ping 64 ------- 0 1.0 4.0 -1 5
+ 0.108128 2 3 ping 64 ------- 0 1.0 4.0 -1 5
- 0.108256 2 3 ping 64 ------- 0 1.0 4.0 -1 5
+ 0.109 0 2 ping 64 ------- 0 0.0 5.0 -1 16
- 0.109 0 2 ping 64 ------- 0 0.0 5.0 -1 16
+ 0.109 1 2 ping 64 ------- 0 1.0 4.0 -1 17
- 0.109 1 2 ping 64 ------- 0 1.0 4.0 -1 17
r 0.109128 0 2 ping 64 ------- 0 0.0 5.0 -1 6
+ 0.109128 2 3 ping 64 ------- 0 0.0 5.0 -1 6
- 0.109128 2 3 ping 64 ------- 0 0.0 5.0 -1 6
r 0.109128 1 2 ping 64 ------- 0 1.0 4.0 -1 7
+ 0.109128 2 3 ping 64 ------- 0 1.0 4.0 -1 7
- 0.109256 2 3 ping 64 ------- 0 1.0 4.0 -1 7
+ 0.11 0 2 ping 64 ------- 0 0.0 5.0 -1 18
- 0.11 0 2 ping 64 ------- 0 0.0 5.0 -1 18
+ 0.11 1 2 ping 64 ------- 0 1.0 4.0 -1 19
- 0.11 1 2 ping 64 ------- 0 1.0 4.0 -1 19
r 0.110128 0 2 ping 64 ------- 0 0.0 5.0 -1 8
+ 0.110128 2 3 ping 64 ------- 0 0.0 5.0 -1 8
- 0.110128 2 3 ping 64 ------- 0 0.0 5.0 -1 8
r 0.110128 1 2 ping 64 ------- 0 1.0 4.0 -1 9
+ 0.110128 2 3 ping 64 ------- 0 1.0 4.0 -1 9
- 0.110256 2 3 ping 64 ------- 0 1.0 4.0 -1 9
+ 0.111 0 2 ping 64 ------- 0 0.0 5.0 -1 20
- 0.111 0 2 ping 64 ------- 0 0.0 5.0 -1 20
+ 0.111 1 2 ping 64 ------- 0 1.0 4.0 -1 21
- 0.111 1 2 ping 64 ------- 0 1.0 4.0 -1 21
r 0.111128 0 2 ping 64 ------- 0 0.0 5.0 -1 10
+ 0.111128 2 3 ping 64 ------- 0 0.0 5.0 -1 10
- 0.111128 2 3 ping 64 ------- 0 0.0 5.0 -1 10
r 0.111128 1 2 ping 64 ------- 0 1.0 4.0 -1 11
+ 0.111128 2 3 ping 64 ------- 0 1.0 4.0 -1 11
- 0.111256 2 3 ping 64 ------- 0 1.0 4.0 -1 11
+ 0.112 0 2 ping 64 ------- 0 0.0 5.0 -1 22
- 0.112 0 2 ping 64 ------- 0 0.0 5.0 -1 22
+ 0.112 1 2 ping 64 ------- 0 1.0 4.0 -1 23
- 0.112 1 2 ping 64 ------- 0 1.0 4.0 -1 23
r 0.112128 0 2 ping 64 ------- 0 0.0 5.0 -1 12
+ 0.112128 2 3 ping 64 ------- 0 0.0 5.0 -1 12
- 0.112128 2 3 ping 64 ------- 0 0.0 5.0 -1 12
r 0.112128 1 2 ping 64 ------- 0 1.0 4.0 -1 13
+ 0.112128 2 3 ping 64 ------- 0 1.0 4.0 -1 13
- 0.112256 2 3 ping 64 ------- 0 1.0 4.0 -1 13
+ 0.113 0 2 ping 64 ------- 0 0.0 5.0 -1 24
- 0.113 0 2 ping 64 ------- 0 0.0 5.0 -1 24
+ 0.113 1 2 ping 64 ------- 0 1.0 4.0 -1 25
- 0.113 1 2 ping 64 ------- 0 1.0 4.0 -1 25
r 0.113128 0 2 ping 64 ------- 0 0.0 5.0 -1 14
+ 0.113128 2 3 ping 64 ------- 0 0.0 5.0 -1 14
- 0.113128 2 3 ping 64 ------- 0 0.0 5.0 -1 14
r 0.113128 1 2 ping 64 ------- 0 1.0 4.0 -1 15
+ 0.113128 2 3 ping 64 ------- 0 1.0 4.0 -1 15
- 0.113256 2 3 ping 64 ------- 0 1.0 4.0 -1 15
+ 0.114 0 2 ping 64 ------- 0 0.0 5.0 -1 26
- 0.114 0 2 ping 64 ------- 0 0.0 5.0 -1 26
+ 0.114 1 2 ping 64 ------- 0 1.0 4.0 -1 27
- 0.114 1 2 ping 64 ------- 0 1.0 4.0 -1 27
r 0.114128 0 2 ping 64 ------- 0 0.0 5.0 -1 16
+ 0.114128 2 3 ping 64 ------- 0 0.0 5.0 -1 16
- 0.114128 2 3 ping 64 ------- 0 0.0 5.0 -1 16
r 0.114128 1 2 ping 64 ------- 0 1.0 4.0 -1 17
+ 0.114128 2 3 ping 64 ------- 0 1.0 4.0 -1 17
- 0.114256 2 3 ping 64 ------- 0 1.0 4.0 -1 17
+ 0.115 0 2 ping 64 ------- 0 0.0 5.0 -1 28
- 0.115 0 2 ping 64 ------- 0 0.0 5.0 -1 28
+ 0.115 1 2 ping 64 ------- 0 1.0 4.0 -1 29
- 0.115 1 2 ping 64 ------- 0 1.0 4.0 -1 29
r 0.115128 0 2 ping 64 ------- 0 0.0 5.0 -1 18
+ 0.115128 2 3 ping 64 ------- 0 0.0 5.0 -1 18
- 0.115128 2 3 ping 64 ------- 0 0.0 5.0 -1 18
r 0.115128 1 2 ping 64 ------- 0 1.0 4.0 -1 19
+ 0.115128 2 3 ping 64 ------- 0 1.0 4.0 -1 19
- 0.115256 2 3 ping 64 ------- 0 1.0 4.0 -1 19
+ 0.116 0 2 ping 64 ------- 0 0.0 5.0 -1 30
- 0.116 0 2 ping 64 ------- 0 0.0 5.0 -1 30
+ 0.116 1 2 ping 64 ------- 0 1.0 4.0 -1 31
- 0.116 1 2 ping 64 ------- 0 1.0 4.0 -1 31
r 0.116128 0 2 ping 64 ------- 0 0.0 5.0 -1 20
+ 0.116128 2 3 ping 64 ------- 0 0.0 5.0 -1 20
- 0.116128 2 3 ping 64 ------- 0 0.0 5.0 -1 20
r 0.116128 1 2 ping 64 ------- 0 1.0 4.0 -1 21
+ 0.116128 2 3 ping 64 ------- 0 1.0 4.0 -1 21
- 0.116256 2 3 ping 64 ------- 0 1.0 4.0 -1 21
+ 0.117 0 2 ping 64 ------- 0 0.0 5.0 -1 32
- 0.117 0 2 ping 64 ------- 0 0.0 5.0 -1 32
+ 0.117 1 2 ping 64 ------- 0 1.0 4.0 -1 33
- 0.117 1 2 ping 64 ------- 0 1.0 4.0 -1 33
r 0.117128 0 2 ping 64 ------- 0 0.0 5.0 -1 22
+ 0.117128 2 3 ping 64 ------- 0 0.0 5.0 -1 22
- 0.117128 2 3 ping 64 ------- 0 0.0 5.0 -1 22
r 0.117128 1 2 ping 64 ------- 0 1.0 4.0 -1 23
+ 0.117128 2 3 ping 64 ------- 0 1.0 4.0 -1 23
- 0.117256 2 3 ping 64 ------- 0 1.0 4.0 -1 23
+ 0.118 0 2 ping 64 ------- 0 0.0 5.0 -1 34
- 0.118 0 2 ping 64 ------- 0 0.0 5.0 -1 34
+ 0.118 1 2 ping 64 ------- 0 1.0 4.0 -1 35
- 0.118 1 2 ping 64 ------- 0 1.0 4.0 -1 35
r 0.118128 0 2 ping 64 ------- 0 0.0 5.0 -1 24
+ 0.118128 2 3 ping 64 ------- 0 0.0 5.0 -1 24
- 0.118128 2 3 ping 64 ------- 0 0.0 5.0 -1 24
r 0.118128 1 2 ping 64 ------- 0 1.0 4.0 -1 25
+ 0.118128 2 3 ping 64 ------- 0 1.0 4.0 -1 25
- 0.118256 2 3 ping 64 ------- 0 1.0 4.0 -1 25
+ 0.119 0 2 ping 64 ------- 0 0.0 5.0 -1 36
- 0.119 0 2 ping 64 ------- 0 0.0 5.0 -1 36
+ 0.119 1 2 ping 64 ------- 0 1.0 4.0 -1 37
- 0.119 1 2 ping 64 ------- 0 1.0 4.0 -1 37
r 0.119128 0 2 ping 64 ------- 0 0.0 5.0 -1 26
+ 0.119128 2 3 ping 64 ------- 0 0.0 5.0 -1 26
- 0.119128 2 3 ping 64 ------- 0 0.0 5.0 -1 26
r 0.119128 1 2 ping 64 ------- 0 1.0 4.0 -1 27
+ 0.119128 2 3 ping 64 ------- 0 1.0 4.0 -1 27
- 0.119256 2 3 ping 64 ------- 0 1.0 4.0 -1 27
+ 0.12 0 2 ping 64 ------- 0 0.0 5.0 -1 38
- 0.12 0 2 ping 64 ------- 0 0.0 5.0 -1 38
+ 0.12 1 2 ping 64 ------- 0 1.0 4.0 -1 39
- 0.12 1 2 ping 64 ------- 0 1.0 4.0 -1 39
r 0.120128 0 2 ping 64 ------- 0 0.0 5.0 -1 28
+ 0.120128 2 3 ping 64 ------- 0 0.0 5.0 -1 28
- 0.120128 2 3 ping 64 ------- 0 0.0 5.0 -1 28
r 0.120128 1 2 ping 64 ------- 0 1.0 4.0 -1 29
+ 0.120128 2 3 ping 64 ------- 0 1.0 4.0 -1 29
- 0.120256 2 3 ping 64 ------- 0 1.0 4.0 -1 29
+ 0.121 0 2 ping 64 ------- 0 0.0 5.0 -1 40
- 0.121 0 2 ping 64 ------- 0 0.0 5.0 -1 40
+ 0.121 1 2 ping 64 ------- 0 1.0 4.0 -1 41
- 0.121 1 2 ping 64 ------- 0 1.0 4.0 -1 41
r 0.121128 0 2 ping 64 ------- 0 0.0 5.0 -1 30
+ 0.121128 2 3 ping 64 ------- 0 0.0 5.0 -1 30
- 0.121128 2 3 ping 64 ------- 0 0.0 5.0 -1 30
r 0.121128 1 2 ping 64 ------- 0 1.0 4.0 -1 31
+ 0.121128 2 3 ping 64 ------- 0 1.0 4.0 -1 31
r 0.121256 2 3 ping 64 ------- 0 0.0 5.0 -1 0
+ 0.121256 3 5 ping 64 ------- 0 0.0 5.0 -1 0
- 0.121256 3 5 ping 64 ------- 0 0.0 5.0 -1 0
- 0.121256 2 3 ping 64 ------- 0 1.0 4.0 -1 31
r 0.121384 2 3 ping 64 ------- 0 1.0 4.0 -1 1
+ 0.121384 3 4 ping 64 ------- 0 1.0 4.0 -1 1
- 0.121384 3 4 ping 64 ------- 0 1.0 4.0 -1 1
+ 0.122 0 2 ping 64 ------- 0 0.0 5.0 -1 42
- 0.122 0 2 ping 64 ------- 0 0.0 5.0 -1 42
+ 0.122 1 2 ping 64 ------- 0 1.0 4.0 -1 43
- 0.122 1 2 ping 64 ------- 0 1.0 4.0 -1 43
r 0.122128 0 2 ping 64 ------- 0 0.0 5.0 -1 32
+ 0.122128 2 3 ping 64 ------- 0 0.0 5.0 -1 32
- 0.122128 2 3 ping 64 ------- 0 0.0 5.0 -1 32
r 0.122128 1 2 ping 64 ------- 0 1.0 4.0 -1 33
+ 0.122128 2 3 ping 64 ------- 0 1.0 4.0 -1 33
r 0.122256 2 3 ping 64 ------- 0 0.0 5.0 -1 2
+ 0.122256 3 5 ping 64 ------- 0 0.0 5.0 -1 2
- 0.122256 3 5 ping 64 ------- 0 0.0 5.0 -1 2
- 0.122256 2 3 ping 64 ------- 0 1.0 4.0 -1 33
r 0.122384 2 3 ping 64 ------- 0 1.0 4.0 -1 3
+ 0.122384 3 4 ping 64 ------- 0 1.0 4.0 -1 3
- 0.122384 3 4 ping 64 ------- 0 1.0 4.0 -1 3
+ 0.123 0 2 ping 64 ------- 0 0.0 5.0 -1 44
- 0.123 0 2 ping 64 ------- 0 0.0 5.0 -1 44
+ 0.123 1 2 ping 64 ------- 0 1.0 4.0 -1 45
- 0.123 1 2 ping 64 ------- 0 1.0 4.0 -1 45
r 0.123128 0 2 ping 64 ------- 0 0.0 5.0 -1 34
+ 0.123128 2 3 ping 64 ------- 0 0.0 5.0 -1 34
- 0.123128 2 3 ping 64 ------- 0 0.0 5.0 -1 34
r 0.123128 1 2 ping 64 ------- 0 1.0 4.0 -1 35
+ 0.123128 2 3 ping 64 ------- 0 1.0 4.0 -1 35
r 0.123256 2 3 ping 64 ------- 0 0.0 5.0 -1 4
+ 0.123256 3 5 ping 64 ------- 0 0.0 5.0 -1 4
- 0.123256 3 5 ping 64 ------- 0 0.0 5.0 -1 4
- 0.123256 2 3 ping 64 ------- 0 1.0 4.0 -1 35
r 0.123384 2 3 ping 64 ------- 0 1.0 4.0 -1 5
+ 0.123384 3 4 ping 64 ------- 0 1.0 4.0 -1 5
- 0.123384 3 4 ping 64 ------- 0 1.0 4.0 -1 5
+ 0.124 0 2 ping 64 ------- 0 0.0 5.0 -1 46
- 0.124 0 2 ping 64 ------- 0 0.0 5.0 -1 46
+ 0.124 1 2 ping 64 ------- 0 1.0 4.0 -1 47
- 0.124 1 2 ping 64 ------- 0 1.0 4.0 -1 47
r 0.124128 0 2 ping 64 ------- 0 0.0 5.0 -1 36
+ 0.124128 2 3 ping 64 ------- 0 0.0 5.0 -1 36
- 0.124128 2 3 ping 64 ------- 0 0.0 5.0 -1 36
r 0.124128 1 2 ping 64 ------- 0 1.0 4.0 -1 37
+ 0.124128 2 3 ping 64 ------- 0 1.0 4.0 -1 37
r 0.124256 2 3 ping 64 ------- 0 0.0 5.0 -1 6
+ 0.124256 3 5 ping 64 ------- 0 0.0 5.0 -1 6
- 0.124256 3 5 ping 64 ------- 0 0.0 5.0 -1 6
- 0.124256 2 3 ping 64 ------- 0 1.0 4.0 -1 37
r 0.124384 2 3 ping 64 ------- 0 1.0 4.0 -1 7
+ 0.124384 3 4 ping 64 ------- 0 1.0 4.0 -1 7
- 0.124384 3 4 ping 64 ------- 0 1.0 4.0 -1 7
+ 0.125 0 2 ping 64 ------- 0 0.0 5.0 -1 48
- 0.125 0 2 ping 64 ------- 0 0.0 5.0 -1 48
+ 0.125 1 2 ping 64 ------- 0 1.0 4.0 -1 49
- 0.125 1 2 ping 64 ------- 0 1.0 4.0 -1 49
r 0.125128 0 2 ping 64 ------- 0 0.0 5.0 -1 38
+ 0.125128 2 3 ping 64 ------- 0 0.0 5.0 -1 38
- 0.125128 2 3 ping 64 ------- 0 0.0 5.0 -1 38
r 0.125128 1 2 ping 64 ------- 0 1.0 4.0 -1 39
+ 0.125128 2 3 ping 64 ------- 0 1.0 4.0 -1 39
r 0.125256 2 3 ping 64 ------- 0 0.0 5.0 -1 8
+ 0.125256 3 5 ping 64 ------- 0 0.0 5.0 -1 8
- 0.125256 3 5 ping 64 ------- 0 0.0 5.0 -1 8
- 0.125256 2 3 ping 64 ------- 0 1.0 4.0 -1 39
r 0.125384 2 3 ping 64 ------- 0 1.0 4.0 -1 9
+ 0.125384 3 4 ping 64 ------- 0 1.0 4.0 -1 9
- 0.125384 3 4 ping 64 ------- 0 1.0 4.0 -1 9
+ 0.126 0 2 ping 64 ------- 0 0.0 5.0 -1 50
- 0.126 0 2 ping 64 ------- 0 0.0 5.0 -1 50
+ 0.126 1 2 ping 64 ------- 0 1.0 4.0 -1 51
- 0.126 1 2 ping 64 ------- 0 1.0 4.0 -1 51
r 0.126128 0 2 ping 64 ------- 0 0.0 5.0 -1 40
+ 0.126128 2 3 ping 64 ------- 0 0.0 5.0 -1 40
- 0.126128 2 3 ping 64 ------- 0 0.0 5.0 -1 40
r 0.126128 1 2 ping 64 ------- 0 1.0 4.0 -1 41
+ 0.126128 2 3 ping 64 ------- 0 1.0 4.0 -1 41
r 0.126256 2 3 ping 64 ------- 0 0.0 5.0 -1 10
+ 0.126256 3 5 ping 64 ------- 0 0.0 5.0 -1 10
- 0.126256 3 5 ping 64 ------- 0 0.0 5.0 -1 10
- 0.126256 2 3 ping 64 ------- 0 1.0 4.0 -1 41
r 0.126384 2 3 ping 64 ------- 0 1.0 4.0 -1 11
+ 0.126384 3 4 ping 64 ------- 0 1.0 4.0 -1 11
- 0.126384 3 4 ping 64 ------- 0 1.0 4.0 -1 11
r 0.126384 3 5 ping 64 ------- 0 0.0 5.0 -1 0
+ 0.126384 5 3 ping 64 ------- 0 5.0 0.0 -1 52
- 0.126384 5 3 ping 64 ------- 0 5.0 0.0 -1 52
r 0.126512 3 4 ping 64 ------- 0 1.0 4.0 -1 1
+ 0.126512 4 3 ping 64 ------- 0 4.0 1.0 -1 53
- 0.126512 4 3 ping 64 ------- 0 4.0 1.0 -1 53
+ 0.127 0 2 ping 64 ------- 0 0.0 5.0 -1 54
- 0.127 0 2 ping 64 ------- 0 0.0 5.0 -1 54
+ 0.127 1 2 ping 64 ------- 0 1.0 4.0 -1 55
- 0.127 1 2 ping 64 ------- 0 1.0 4.0 -1 55
r 0.127128 0 2 ping 64 ------- 0 0.0 5.0 -1 42
+ 0.127128 2 3 ping 64 ------- 0 0.0 5.0 -1 42
- 0.127128 2 3 ping 64 ------- 0 0.0 5.0 -1 42
r 0.127128 1 2 ping 64 ------- 0 1.0 4.0 -1 43
+ 0.127128 2 3 ping 64 ------- 0 1.0 4.0 -1 43
r 0.127256 2 3 ping 64 ------- 0 0.0 5.0 -1 12
+ 0.127256 3 5 ping 64 ------- 0 0.0 5.0 -1 12
- 0.127256 3 5 ping 64 ------- 0 0.0 5.0 -1 12
- 0.127256 2 3 ping 64 ------- 0 1.0 4.0 -1 43
r 0.127384 2 3 ping 64 ------- 0 1.0 4.0 -1 13
+ 0.127384 3 4 ping 64 ------- 0 1.0 4.0 -1 13
- 0.127384 3 4 ping 64 ------- 0 1.0 4.0 -1 13
r 0.127384 3 5 ping 64 ------- 0 0.0 5.0 -1 2
+ 0.127384 5 3 ping 64 ------- 0 5.0 0.0 -1 56
- 0.127384 5 3 ping 64 ------- 0 5.0 0.0 -1 56
r 0.127512 3 4 ping 64 ------- 0 1.0 4.0 -1 3
+ 0.127512 4 3 ping 64 ------- 0 4.0 1.0 -1 57
- 0.127512 4 3 ping 64 ------- 0 4.0 1.0 -1 57
+ 0.128 0 2 ping 64 ------- 0 0.0 5.0 -1 58
- 0.128 0 2 ping 64 ------- 0 0.0 5.0 -1 58
+ 0.128 1 2 ping 64 ------- 0 1.0 4.0 -1 59
- 0.128 1 2 ping 64 ------- 0 1.0 4.0 -1 59
r 0.128128 0 2 ping 64 ------- 0 0.0 5.0 -1 44
+ 0.128128 2 3 ping 64 ------- 0 0.0 5.0 -1 44
- 0.128128 2 3 ping 64 ------- 0 0.0 5.0 -1 44
r 0.128128 1 2 ping 64 ------- 0 1.0 4.0 -1 45
+ 0.128128 2 3 ping 64 ------- 0 1.0 4.0 -1 45
r 0.128256 2 3 ping 64 ------- 0 0.0 5.0 -1 14
+ 0.128256 3 5 ping 64 ------- 0 0.0 5.0 -1 14
- 0.128256 3 5 ping 64 ------- 0 0.0 5.0 -1 14
- 0.128256 2 3 ping 64 ------- 0 1.0 4.0 -1 45
r 0.128384 2 3 ping 64 ------- 0 1.0 4.0 -1 15
+ 0.128384 3 4 ping 64 ------- 0 1.0 4.0 -1 15
- 0.128384 3 4 ping 64 ------- 0 1.0 4.0 -1 15
r 0.128384 3 5 ping 64 ------- 0 0.0 5.0 -1 4
+ 0.128384 5 3 ping 64 ------- 0 5.0 0.0 -1 60
- 0.128384 5 3 ping 64 ------- 0 5.0 0.0 -1 60
r 0.128512 3 4 ping 64 ------- 0 1.0 4.0 -1 5
+ 0.128512 4 3 ping 64 ------- 0 4.0 1.0 -1 61
- 0.128512 4 3 ping 64 ------- 0 4.0 1.0 -1 61
+ 0.129 0 2 ping 64 ------- 0 0.0 5.0 -1 62
- 0.129 0 2 ping 64 ------- 0 0.0 5.0 -1 62
+ 0.129 1 2 ping 64 ------- 0 1.0 4.0 -1 63
- 0.129 1 2 ping 64 ------- 0 1.0 4.0 -1 63
r 0.129128 0 2 ping 64 ------- 0 0.0 5.0 -1 46
+ 0.129128 2 3 ping 64 ------- 0 0.0 5.0 -1 46
- 0.129128 2 3 ping 64 ------- 0 0.0 5.0 -1 46
r 0.129128 1 2 ping 64 ------- 0 1.0 4.0 -1 47
+ 0.129128 2 3 ping 64 ------- 0 1.0 4.0 -1 47
r 0.129256 2 3 ping 64 ------- 0 0.0 5.0 -1 16
+ 0.129256 3 5 ping 64 ------- 0 0.0 5.0 -1 16
- 0.129256 3 5 ping 64 ------- 0 0.0 5.0 -1 16
- 0.129256 2 3 ping 64 ------- 0 1.0 4.0 -1 47
r 0.129384 2 3 ping 64 ------- 0 1.0 4.0 -1 17
+ 0.129384 3 4 ping 64 ------- 0 1.0 4.0 -1 17
- 0.129384 3 4 ping 64 ------- 0 1.0 4.0 -1 17
r 0.129384 3 5 ping 64 ------- 0 0.0 5.0 -1 6
+ 0.129384 5 3 ping 64 ------- 0 5.0 0.0 -1 64
- 0.129384 5 3 ping 64 ------- 0 5.0 0.0 -1 64
r 0.129512 3 4 ping 64 ------- 0 1.0 4.0 -1 7
+ 0.129512 4 3 ping 64 ------- 0 4.0 1.0 -1 65
- 0.129512 4 3 ping 64 ------- 0 4.0 1.0 -1 65
+ 0.13 0 2 ping 64 ------- 0 0.0 5.0 -1 66
- 0.13 0 2 ping 64 ------- 0 0.0 5.0 -1 66
+ 0.13 1 2 ping 64 ------- 0 1.0 4.0 -1 67
- 0.13 1 2 ping 64 ------- 0 1.0 4.0 -1 67
r 0.130128 0 2 ping 64 ------- 0 0.0 5.0 -1 48
+ 0.130128 2 3 ping 64 ------- 0 0.0 5.0 -1 48
- 0.130128 2 3 ping 64 ------- 0 0.0 5.0 -1 48
r 0.130128 1 2 ping 64 ------- 0 1.0 4.0 -1 49
+ 0.130128 2 3 ping 64 ------- 0 1.0 4.0 -1 49
r 0.130256 2 3 ping 64 ------- 0 0.0 5.0 -1 18
+ 0.130256 3 5 ping 64 ------- 0 0.0 5.0 -1 18
- 0.130256 3 5 ping 64 ------- 0 0.0 5.0 -1 18
- 0.130256 2 3 ping 64 ------- 0 1.0 4.0 -1 49
r 0.130384 2 3 ping 64 ------- 0 1.0 4.0 -1 19
+ 0.130384 3 4 ping 64 ------- 0 1.0 4.0 -1 19
- 0.130384 3 4 ping 64 ------- 0 1.0 4.0 -1 19
r 0.130384 3 5 ping 64 ------- 0 0.0 5.0 -1 8
+ 0.130384 5 3 ping 64 ------- 0 5.0 0.0 -1 68
- 0.130384 5 3 ping 64 ------- 0 5.0 0.0 -1 68
r 0.130512 3 4 ping 64 ------- 0 1.0 4.0 -1 9
+ 0.130512 4 3 ping 64 ------- 0 4.0 1.0 -1 69
- 0.130512 4 3 ping 64 ------- 0 4.0 1.0 -1 69
+ 0.131 0 2 ping 64 ------- 0 0.0 5.0 -1 70
- 0.131 0 2 ping 64 ------- 0 0.0 5.0 -1 70
+ 0.131 1 2 ping 64 ------- 0 1.0 4.0 -1 71
- 0.131 1 2 ping 64 ------- 0 1.0 4.0 -1 71
r 0.131128 0 2 ping 64 ------- 0 0.0 5.0 -1 50
+ 0.131128 2 3 ping 64 ------- 0 0.0 5.0 -1 50
- 0.131128 2 3 ping 64 ------- 0 0.0 5.0 -1 50
r 0.131128 1 2 ping 64 ------- 0 1.0 4.0 -1 51
+ 0.131128 2 3 ping 64 ------- 0 1.0 4.0 -1 51
r 0.131256 2 3 ping 64 ------- 0 0.0 5.0 -1 20
+ 0.131256 3 5 ping 64 ------- 0 0.0 5.0 -1 20
- 0.131256 3 5 ping 64 ------- 0 0.0 5.0 -1 20
- 0.131256 2 3 ping 64 ------- 0 1.0 4.0 -1 51
r 0.131384 2 3 ping 64 ------- 0 1.0 4.0 -1 21
+ 0.131384 3 4 ping 64 ------- 0 1.0 4.0 -1 21
- 0.131384 3 4 ping 64 ------- 0 1.0 4.0 -1 21
r 0.131384 3 5 ping 64 ------- 0 0.0 5.0 -1 10
+ 0.131384 5 3 ping 64 ------- 0 5.0 0.0 -1 72
- 0.131384 5 3 ping 64 ------- 0 5.0 0.0 -1 72
r 0.131512 3 4 ping 64 ------- 0 1.0 4.0 -1 11
+ 0.131512 4 3 ping 64 ------- 0 4.0 1.0 -1 73
- 0.131512 4 3 ping 64 ------- 0 4.0 1.0 -1 73
r 0.131512 5 3 ping 64 ------- 0 5.0 0.0 -1 52
+ 0.131512 3 2 ping 64 ------- 0 5.0 0.0 -1 52
- 0.131512 3 2 ping 64 ------- 0 5.0 0.0 -1 52
r 0.13164 4 3 ping 64 ------- 0 4.0 1.0 -1 53
+ 0.13164 3 2 ping 64 ------- 0 4.0 1.0 -1 53
- 0.13164 3 2 ping 64 ------- 0 4.0 1.0 -1 53
+ 0.132 0 2 ping 64 ------- 0 0.0 5.0 -1 74
- 0.132 0 2 ping 64 ------- 0 0.0 5.0 -1 74
+ 0.132 1 2 ping 64 ------- 0 1.0 4.0 -1 75
- 0.132 1 2 ping 64 ------- 0 1.0 4.0 -1 75
r 0.132128 0 2 ping 64 ------- 0 0.0 5.0 -1 54
+ 0.132128 2 3 ping 64 ------- 0 0.0 5.0 -1 54
- 0.132128 2 3 ping 64 ------- 0 0.0 5.0 -1 54
r 0.132128 1 2 ping 64 ------- 0 1.0 4.0 -1 55
+ 0.132128 2 3 ping 64 ------- 0 1.0 4.0 -1 55
r 0.132256 2 3 ping 64 ------- 0 0.0 5.0 -1 22
+ 0.132256 3 5 ping 64 ------- 0 0.0 5.0 -1 22
- 0.132256 3 5 ping 64 ------- 0 0.0 5.0 -1 22
- 0.132256 2 3 ping 64 ------- 0 1.0 4.0 -1 55
r 0.132384 2 3 ping 64 ------- 0 1.0 4.0 -1 23
+ 0.132384 3 4 ping 64 ------- 0 1.0 4.0 -1 23
- 0.132384 3 4 ping 64 ------- 0 1.0 4.0 -1 23
r 0.132384 3 5 ping 64 ------- 0 0.0 5.0 -1 12
+ 0.132384 5 3 ping 64 ------- 0 5.0 0.0 -1 76
- 0.132384 5 3 ping 64 ------- 0 5.0 0.0 -1 76
r 0.132512 3 4 ping 64 ------- 0 1.0 4.0 -1 13
+ 0.132512 4 3 ping 64 ------- 0 4.0 1.0 -1 77
- 0.132512 4 3 ping 64 ------- 0 4.0 1.0 -1 77
r 0.132512 5 3 ping 64 ------- 0 5.0 0.0 -1 56
+ 0.132512 3 2 ping 64 ------- 0 5.0 0.0 -1 56
- 0.132512 3 2 ping 64 ------- 0 5.0 0.0 -1 56
r 0.13264 4 3 ping 64 ------- 0 4.0 1.0 -1 57
+ 0.13264 3 2 ping 64 ------- 0 4.0 1.0 -1 57
- 0.13264 3 2 ping 64 ------- 0 4.0 1.0 -1 57
+ 0.133 0 2 ping 64 ------- 0 0.0 5.0 -1 78
- 0.133 0 2 ping 64 ------- 0 0.0 5.0 -1 78
+ 0.133 1 2 ping 64 ------- 0 1.0 4.0 -1 79
- 0.133 1 2 ping 64 ------- 0 1.0 4.0 -1 79
r 0.133128 0 2 ping 64 ------- 0 0.0 5.0 -1 58
+ 0.133128 2 3 ping 64 ------- 0 0.0 5.0 -1 58
- 0.133128 2 3 ping 64 ------- 0 0.0 5.0 -1 58
r 0.133128 1 2 ping 64 ------- 0 1.0 4.0 -1 59
+ 0.133128 2 3 ping 64 ------- 0 1.0 4.0 -1 59
r 0.133256 2 3 ping 64 ------- 0 0.0 5.0 -1 24
+ 0.133256 3 5 ping 64 ------- 0 0.0 5.0 -1 24
- 0.133256 3 5 ping 64 ------- 0 0.0 5.0 -1 24
- 0.133256 2 3 ping 64 ------- 0 1.0 4.0 -1 59
r 0.133384 2 3 ping 64 ------- 0 1.0 4.0 -1 25
+ 0.133384 3 4 ping 64 ------- 0 1.0 4.0 -1 25
- 0.133384 3 4 ping 64 ------- 0 1.0 4.0 -1 25
r 0.133384 3 5 ping 64 ------- 0 0.0 5.0 -1 14
+ 0.133384 5 3 ping 64 ------- 0 5.0 0.0 -1 80
- 0.133384 5 3 ping 64 ------- 0 5.0 0.0 -1 80
r 0.133512 3 4 ping 64 ------- 0 1.0 4.0 -1 15
+ 0.133512 4 3 ping 64 ------- 0 4.0 1.0 -1 81
- 0.133512 4 3 ping 64 ------- 0 4.0 1.0 -1 81
r 0.133512 5 3 ping 64 ------- 0 5.0 0.0 -1 60
+ 0.133512 3 2 ping 64 ------- 0 5.0 0.0 -1 60
- 0.133512 3 2 ping 64 ------- 0 5.0 0.0 -1 60
r 0.13364 4 3 ping 64 ------- 0 4.0 1.0 -1 61
+ 0.13364 3 2 ping 64 ------- 0 4.0 1.0 -1 61
- 0.13364 3 2 ping 64 ------- 0 4.0 1.0 -1 61
+ 0.134 0 2 ping 64 ------- 0 0.0 5.0 -1 82
- 0.134 0 2 ping 64 ------- 0 0.0 5.0 -1 82
+ 0.134 1 2 ping 64 ------- 0 1.0 4.0 -1 83
- 0.134 1 2 ping 64 ------- 0 1.0 4.0 -1 83
r 0.134128 0 2 ping 64 ------- 0 0.0 5.0 -1 62
+ 0.134128 2 3 ping 64 ------- 0 0.0 5.0 -1 62
- 0.134128 2 3 ping 64 ------- 0 0.0 5.0 -1 62
r 0.134128 1 2 ping 64 ------- 0 1.0 4.0 -1 63
+ 0.134128 2 3 ping 64 ------- 0 1.0 4.0 -1 63
r 0.134256 2 3 ping 64 ------- 0 0.0 5.0 -1 26
+ 0.134256 3 5 ping 64 ------- 0 0.0 5.0 -1 26
- 0.134256 3 5 ping 64 ------- 0 0.0 5.0 -1 26
- 0.134256 2 3 ping 64 ------- 0 1.0 4.0 -1 63
r 0.134384 2 3 ping 64 ------- 0 1.0 4.0 -1 27
+ 0.134384 3 4 ping 64 ------- 0 1.0 4.0 -1 27
- 0.134384 3 4 ping 64 ------- 0 1.0 4.0 -1 27
r 0.134384 3 5 ping 64 ------- 0 0.0 5.0 -1 16
+ 0.134384 5 3 ping 64 ------- 0 5.0 0.0 -1 84
- 0.134384 5 3 ping 64 ------- 0 5.0 0.0 -1 84
r 0.134512 3 4 ping 64 ------- 0 1.0 4.0 -1 17
+ 0.134512 4 3 ping 64 ------- 0 4.0 1.0 -1 85
- 0.134512 4 3 ping 64 ------- 0 4.0 1.0 -1 85
r 0.134512 5 3 ping 64 ------- 0 5.0 0.0 -1 64
+ 0.134512 3 2 ping 64 ------- 0 5.0 0.0 -1 64
- 0.134512 3 2 ping 64 ------- 0 5.0 0.0 -1 64
r 0.13464 4 3 ping 64 ------- 0 4.0 1.0 -1 65
+ 0.13464 3 2 ping 64 ------- 0 4.0 1.0 -1 65
- 0.13464 3 2 ping 64 ------- 0 4.0 1.0 -1 65
+ 0.135 0 2 ping 64 ------- 0 0.0 5.0 -1 86
- 0.135 0 2 ping 64 ------- 0 0.0 5.0 -1 86
+ 0.135 1 2 ping 64 ------- 0 1.0 4.0 -1 87
- 0.135 1 2 ping 64 ------- 0 1.0 4.0 -1 87
r 0.135128 0 2 ping 64 ------- 0 0.0 5.0 -1 66
+ 0.135128 2 3 ping 64 ------- 0 0.0 5.0 -1 66
- 0.135128 2 3 ping 64 ------- 0 0.0 5.0 -1 66
r 0.135128 1 2 ping 64 ------- 0 1.0 4.0 -1 67
+ 0.135128 2 3 ping 64 ------- 0 1.0 4.0 -1 67
r 0.135256 2 3 ping 64 ------- 0 0.0 5.0 -1 28
+ 0.135256 3 5 ping 64 ------- 0 0.0 5.0 -1 28
- 0.135256 3 5 ping 64 ------- 0 0.0 5.0 -1 28
- 0.135256 2 3 ping 64 ------- 0 1.0 4.0 -1 67
r 0.135384 2 3 ping 64 ------- 0 1.0 4.0 -1 29
+ 0.135384 3 4 ping 64 ------- 0 1.0 4.0 -1 29
- 0.135384 3 4 ping 64 ------- 0 1.0 4.0 -1 29
r 0.135384 3 5 ping 64 ------- 0 0.0 5.0 -1 18
+ 0.135384 5 3 ping 64 ------- 0 5.0 0.0 -1 88
- 0.135384 5 3 ping 64 ------- 0 5.0 0.0 -1 88
r 0.135512 3 4 ping 64 ------- 0 1.0 4.0 -1 19
+ 0.135512 4 3 ping 64 ------- 0 4.0 1.0 -1 89
- 0.135512 4 3 ping 64 ------- 0 4.0 1.0 -1 89
r 0.135512 5 3 ping 64 ------- 0 5.0 0.0 -1 68
+ 0.135512 3 2 ping 64 ------- 0 5.0 0.0 -1 68
- 0.135512 3 2 ping 64 ------- 0 5.0 0.0 -1 68
r 0.13564 4 3 ping 64 ------- 0 4.0 1.0 -1 69
+ 0.13564 3 2 ping 64 ------- 0 4.0 1.0 -1 69
- 0.13564 3 2 ping 64 ------- 0 4.0 1.0 -1 69
+ 0.136 0 2 ping 64 ------- 0 0.0 5.0 -1 90
- 0.136 0 2 ping 64 ------- 0 0.0 5.0 -1 90
+ 0.136 1 2 ping 64 ------- 0 1.0 4.0 -1 91
- 0.136 1 2 ping 64 ------- 0 1.0 4.0 -1 91
r 0.136128 0 2 ping 64 ------- 0 0.0 5.0 -1 70
+ 0.136128 2 3 ping 64 ------- 0 0.0 5.0 -1 70
- 0.136128 2 3 ping 64 ------- 0 0.0 5.0 -1 70
r 0.136128 1 2 ping 64 ------- 0 1.0 4.0 -1 71
+ 0.136128 2 3 ping 64 ------- 0 1.0 4.0 -1 71
r 0.136256 2 3 ping 64 ------- 0 0.0 5.0 -1 30
+ 0.136256 3 5 ping 64 ------- 0 0.0 5.0 -1 30
- 0.136256 3 5 ping 64 ------- 0 0.0 5.0 -1 30
- 0.136256 2 3 ping 64 ------- 0 1.0 4.0 -1 71
r 0.136384 2 3 ping 64 ------- 0 1.0 4.0 -1 31
+ 0.136384 3 4 ping 64 ------- 0 1.0 4.0 -1 31
- 0.136384 3 4 ping 64 ------- 0 1.0 4.0 -1 31
r 0.136384 3 5 ping 64 ------- 0 0.0 5.0 -1 20
+ 0.136384 5 3 ping 64 ------- 0 5.0 0.0 -1 92
- 0.136384 5 3 ping 64 ------- 0 5.0 0.0 -1 92
r 0.136512 3 4 ping 64 ------- 0 1.0 4.0 -1 21
+ 0.136512 4 3 ping 64 ------- 0 4.0 1.0 -1 93
- 0.136512 4 3 ping 64 ------- 0 4.0 1.0 -1 93
r 0.136512 5 3 ping 64 ------- 0 5.0 0.0 -1 72
+ 0.136512 3 2 ping 64 ------- 0 5.0 0.0 -1 72
- 0.136512 3 2 ping 64 ------- 0 5.0 0.0 -1 72
r 0.13664 4 3 ping 64 ------- 0 4.0 1.0 -1 73
+ 0.13664 3 2 ping 64 ------- 0 4.0 1.0 -1 73
- 0.13664 3 2 ping 64 ------- 0 4.0 1.0 -1 73
+ 0.137 0 2 ping 64 ------- 0 0.0 5.0 -1 94
- 0.137 0 2 ping 64 ------- 0 0.0 5.0 -1 94
+ 0.137 1 2 ping 64 ------- 0 1.0 4.0 -1 95
- 0.137 1 2 ping 64 ------- 0 1.0 4.0 -1 95
r 0.137128 0 2 ping 64 ------- 0 0.0 5.0 -1 74
+ 0.137128 2 3 ping 64 ------- 0 0.0 5.0 -1 74
- 0.137128 2 3 ping 64 ------- 0 0.0 5.0 -1 74
r 0.137128 1 2 ping 64 ------- 0 1.0 4.0 -1 75
+ 0.137128 2 3 ping 64 ------- 0 1.0 4.0 -1 75
r 0.137256 2 3 ping 64 ------- 0 0.0 5.0 -1 32
+ 0.137256 3 5 ping 64 ------- 0 0.0 5.0 -1 32
- 0.137256 3 5 ping 64 ------- 0 0.0 5.0 -1 32
- 0.137256 2 3 ping 64 ------- 0 1.0 4.0 -1 75
r 0.137384 2 3 ping 64 ------- 0 1.0 4.0 -1 33
+ 0.137384 3 4 ping 64 ------- 0 1.0 4.0 -1 33
- 0.137384 3 4 ping 64 ------- 0 1.0 4.0 -1 33
r 0.137384 3 5 ping 64 ------- 0 0.0 5.0 -1 22
+ 0.137384 5 3 ping 64 ------- 0 5.0 0.0 -1 96
- 0.137384 5 3 ping 64 ------- 0 5.0 0.0 -1 96
r 0.137512 3 4 ping 64 ------- 0 1.0 4.0 -1 23
+ 0.137512 4 3 ping 64 ------- 0 4.0 1.0 -1 97
- 0.137512 4 3 ping 64 ------- 0 4.0 1.0 -1 97
r 0.137512 5 3 ping 64 ------- 0 5.0 0.0 -1 76
+ 0.137512 3 2 ping 64 ------- 0 5.0 0.0 -1 76
- 0.137512 3 2 ping 64 ------- 0 5.0 0.0 -1 76
r 0.13764 4 3 ping 64 ------- 0 4.0 1.0 -1 77
+ 0.13764 3 2 ping 64 ------- 0 4.0 1.0 -1 77
- 0.13764 3 2 ping 64 ------- 0 4.0 1.0 -1 77
+ 0.138 0 2 ping 64 ------- 0 0.0 5.0 -1 98
- 0.138 0 2 ping 64 ------- 0 0.0 5.0 -1 98
+ 0.138 1 2 ping 64 ------- 0 1.0 4.0 -1 99
- 0.138 1 2 ping 64 ------- 0 1.0 4.0 -1 99
r 0.138128 0 2 ping 64 ------- 0 0.0 5.0 -1 78
+ 0.138128 2 3 ping 64 ------- 0 0.0 5.0 -1 78
- 0.138128 2 3 ping 64 ------- 0 0.0 5.0 -1 78
r 0.138128 1 2 ping 64 ------- 0 1.0 4.0 -1 79
+ 0.138128 2 3 ping 64 ------- 0 1.0 4.0 -1 79
r 0.138256 2 3 ping 64 ------- 0 0.0 5.0 -1 34
+ 0.138256 3 5 ping 64 ------- 0 0.0 5.0 -1 34
- 0.138256 3 5 ping 64 ------- 0 0.0 5.0 -1 34
- 0.138256 2 3 ping 64 ------- 0 1.0 4.0 -1 79
r 0.138384 2 3 ping 64 ------- 0 1.0 4.0 -1 35
+ 0.138384 3 4 ping 64 ------- 0 1.0 4.0 -1 35
- 0.138384 3 4 ping 64 ------- 0 1.0 4.0 -1 35
r 0.138384 3 5 ping 64 ------- 0 0.0 5.0 -1 24
+ 0.138384 5 3 ping 64 ------- 0 5.0 0.0 -1 100
- 0.138384 5 3 ping 64 ------- 0 5.0 0.0 -1 100
r 0.138512 3 4 ping 64 ------- 0 1.0 4.0 -1 25
+ 0.138512 4 3 ping 64 ------- 0 4.0 1.0 -1 101
- 0.138512 4 3 ping 64 ------- 0 4.0 1.0 -1 101
r 0.138512 5 3 ping 64 ------- 0 5.0 0.0 -1 80
+ 0.138512 3 2 ping 64 ------- 0 5.0 0.0 -1 80
- 0.138512 3 2 ping 64 ------- 0 5.0 0.0 -1 80
r 0.13864 4 3 ping 64 ------- 0 4.0 1.0 -1 81
+ 0.13864 3 2 ping 64 ------- 0 4.0 1.0 -1 81
- 0.13864 3 2 ping 64 ------- 0 4.0 1.0 -1 81
+ 0.139 0 2 ping 64 ------- 0 0.0 5.0 -1 102
- 0.139 0 2 ping 64 ------- 0 0.0 5.0 -1 102
+ 0.139 1 2 ping 64 ------- 0 1.0 4.0 -1 103
- 0.139 1 2 ping 64 ------- 0 1.0 4.0 -1 103
r 0.139128 0 2 ping 64 ------- 0 0.0 5.0 -1 82
+ 0.139128 2 3 ping 64 ------- 0 0.0 5.0 -1 82
- 0.139128 2 3 ping 64 ------- 0 0.0 5.0 -1 82
r 0.139128 1 2 ping 64 ------- 0 1.0 4.0 -1 83
+ 0.139128 2 3 ping 64 ------- 0 1.0 4.0 -1 83
r 0.139256 2 3 ping 64 ------- 0 0.0 5.0 -1 36
+ 0.139256 3 5 ping 64 ------- 0 0.0 5.0 -1 36
- 0.139256 3 5 ping 64 ------- 0 0.0 5.0 -1 36
- 0.139256 2 3 ping 64 ------- 0 1.0 4.0 -1 83
r 0.139384 2 3 ping 64 ------- 0 1.0 4.0 -1 37
+ 0.139384 3 4 ping 64 ------- 0 1.0 4.0 -1 37
- 0.139384 3 4 ping 64 ------- 0 1.0 4.0 -1 37
r 0.139384 3 5 ping 64 ------- 0 0.0 5.0 -1 26
+ 0.139384 5 3 ping 64 ------- 0 5.0 0.0 -1 104
- 0.139384 5 3 ping 64 ------- 0 5.0 0.0 -1 104
r 0.139512 3 4 ping 64 ------- 0 1.0 4.0 -1 27
+ 0.139512 4 3 ping 64 ------- 0 4.0 1.0 -1 105
- 0.139512 4 3 ping 64 ------- 0 4.0 1.0 -1 105
r 0.139512 5 3 ping 64 ------- 0 5.0 0.0 -1 84
+ 0.139512 3 2 ping 64 ------- 0 5.0 0.0 -1 84
- 0.139512 3 2 ping 64 ------- 0 5.0 0.0 -1 84
r 0.13964 4 3 ping 64 ------- 0 4.0 1.0 -1 85
+ 0.13964 3 2 ping 64 ------- 0 4.0 1.0 -1 85
- 0.13964 3 2 ping 64 ------- 0 4.0 1.0 -1 85
+ 0.14 0 2 ping 64 ------- 0 0.0 5.0 -1 106
- 0.14 0 2 ping 64 ------- 0 0.0 5.0 -1 106
+ 0.14 1 2 ping 64 ------- 0 1.0 4.0 -1 107
- 0.14 1 2 ping 64 ------- 0 1.0 4.0 -1 107
r 0.140128 0 2 ping 64 ------- 0 0.0 5.0 -1 86
+ 0.140128 2 3 ping 64 ------- 0 0.0 5.0 -1 86
- 0.140128 2 3 ping 64 ------- 0 0.0 5.0 -1 86
r 0.140128 1 2 ping 64 ------- 0 1.0 4.0 -1 87
+ 0.140128 2 3 ping 64 ------- 0 1.0 4.0 -1 87
r 0.140256 2 3 ping 64 ------- 0 0.0 5.0 -1 38
+ 0.140256 3 5 ping 64 ------- 0 0.0 5.0 -1 38
- 0.140256 3 5 ping 64 ------- 0 0.0 5.0 -1 38
- 0.140256 2 3 ping 64 ------- 0 1.0 4.0 -1 87
r 0.140384 2 3 ping 64 ------- 0 1.0 4.0 -1 39
+ 0.140384 3 4 ping 64 ------- 0 1.0 4.0 -1 39
- 0.140384 3 4 ping 64 ------- 0 1.0 4.0 -1 39
r 0.140384 3 5 ping 64 ------- 0 0.0 5.0 -1 28
+ 0.140384 5 3 ping 64 ------- 0 5.0 0.0 -1 108
- 0.140384 5 3 ping 64 ------- 0 5.0 0.0 -1 108
r 0.140512 3 4 ping 64 ------- 0 1.0 4.0 -1 29
+ 0.140512 4 3 ping 64 ------- 0 4.0 1.0 -1 109
- 0.140512 4 3 ping 64 ------- 0 4.0 1.0 -1 109
r 0.140512 5 3 ping 64 ------- 0 5.0 0.0 -1 88
+ 0.140512 3 2 ping 64 ------- 0 5.0 0.0 -1 88
- 0.140512 3 2 ping 64 ------- 0 5.0 0.0 -1 88
r 0.14064 4 3 ping 64 ------- 0 4.0 1.0 -1 89
+ 0.14064 3 2 ping 64 ------- 0 4.0 1.0 -1 89
- 0.14064 3 2 ping 64 ------- 0 4.0 1.0 -1 89
+ 0.141 0 2 ping 64 ------- 0 0.0 5.0 -1 110
- 0.141 0 2 ping 64 ------- 0 0.0 5.0 -1 110
+ 0.141 1 2 ping 64 ------- 0 1.0 4.0 -1 111
- 0.141 1 2 ping 64 ------- 0 1.0 4.0 -1 111
r 0.141128 0 2 ping 64 ------- 0 0.0 5.0 -1 90
+ 0.141128 2 3 ping 64 ------- 0 0.0 5.0 -1 90
- 0.141128 2 3 ping 64 ------- 0 0.0 5.0 -1 90
r 0.141128 1 2 ping 64 ------- 0 1.0 4.0 -1 91
+ 0.141128 2 3 ping 64 ------- 0 1.0 4.0 -1 91
r 0.141256 2 3 ping 64 ------- 0 0.0 5.0 -1 40
+ 0.141256 3 5 ping 64 ------- 0 0.0 5.0 -1 40