V -t * -v 1.0a5 -a 0
A -t * -n 1 -p 0 -o 0x7fffffff -c 30 -a 1
A -t * -h 1 -m 1073741823 -s 0
n -t * -a 4 -s 4 -S UP -v circle -c black -i black
n -t * -a 0 -s 0 -S UP -v circle -c black -i black
n -t * -a 5 -s 5 -S UP -v circle -c black -i black
n -t * -a 1 -s 1 -S UP -v circle -c black -i black
n -t * -a 2 -s 2 -S UP -v circle -c black -i black
n -t * -a 3 -s 3 -S UP -v circle -c black -i black
l -t * -s 0 -d 2 -S UP -r 4000000 -D 0.0050000000000000001 -c black
l -t * -s 1 -d 2 -S UP -r 4000000 -D 0.0050000000000000001 -c black
l -t * -s 2 -d 3 -S UP -r 4000000 -D 0.014999999999999999 -c black
l -t * -s 3 -d 4 -S UP -r 4000000 -D 0.0050000000000000001 -c black
l -t * -s 3 -d 5 -S UP -r 4000000 -D 0.0050000000000000001 -c black
+ -t 0.101 -s 0 -d 2 -p ping -e 64 -c 0 -i 0 -a 0 -x {0.0 5.0 -1 ------- null}
- -t 0.101 -s 0 -d 2 -p ping -e 64 -c 0 -i 0 -a 0 -x {0.0 5.0 -1 ------- null}
h -t 0.101 -s 0 -d 2 -p ping -e 64 -c 0 -i 0 -a 0 -x {0.0 5.0 -1 ------- null}
+ -t 0.101 -s 1 -d 2 -p ping -e 64 -c 0 -i 1 -a 0 -x {1.0 4.0 -1 ------- null}
- -t 0.101 -s 1 -d 2 -p ping -e 64 -c 0 -i 1 -a 0 -x {1.0 4.0 -1 ------- null}
h -t 0.101 -s 1 -d 2 -p ping -e 64 -c 0 -i 1 -a 0 -x {1.0 4.0 -1 ------- null}
+ -t 0.102 -s 0 -d 2 -p ping -e 64 -c 0 -i 2 -a 0 -x {0.0 5.0 -1 ------- null}
- -t 0.102 -s 0 -d 2 -p ping -e 64 -c 0 -i 2 -a 0 -x {0.0 5.0 -1 ------- null}
h -t 0.102 -s 0 -d 2 -p ping -e 64 -c 0 -i 2 -a 0 -x {0.0 5.0 -1 ------- null}
+ -t 0.102 -s 1 -d 2 -p ping -e 64 -c 0 -i 3 -a 0 -x {1.0 4.0 -1 ------- null}
- -t 0.102 -s 1 -d 2 -p ping -e 64 -c 0 -i 3 -a 0 -x {1.0 4.0 -1 ------- null}
h -t 0.102 -s 1 -d 2 -p ping -e 64 -c 0 -i 3 -a 0 -x {1.0 4.0 -1 ------- null}
+ -t 0.103 -s 0 -d 2 -p ping -e 64 -c 0 -i 4 -a 0 -x {0.0 5.0 -1 ------- null}
- -t 0.103 -s 0 -d 2 -p ping -e 64 -c 0 -i 4 -a 0 -x {0.0 5.0 -1 ------- null}
h -t 0.103 -s 0 -d 2 -p ping -e 64 -c 0 -i 4 -a 0 -x {0.0 5.0 -1 ------- null}
+ -t 0.103 -s 1 -d 2 -p ping -e 64 -c 0 -i 5 -a 0 -x {1.0 4.0 -1 ------- null}
- -t 0.103 -s 1 -d 2 -p ping -e 64 -c 0 -i 5 -a 0 -x {1.0 4.0 -1 ------- null}
h -t 0.103 -s 1 -d 2 -p ping -e 64 -c 0 -i 5 -a 0 -x {1.0 4.0 -1 ------- null}
+ -t 0.104 -s 0 -d 2 -p ping -e 64 -c 0 -i 6 -a 0 -x {0.0 5.0 -1 ------- null}
- -t 0.104 -s 0 -d 2 -p ping -e 64 -c 0 -i 6 -a 0 -x {0.0 5.0 -1 ------- null}
h -t 0.104 -s 0 -d 2 -p ping -e 64 -c 0 -i 6 -a 0 -x {0.0 5.0 -1 ------- null}
+ -t 0.104 -s 1 -d 2 -p ping -e 64 -c 0 -i 7 -a 0 -x {1.0 4.0 -1 ------- null}
- -t 0.104 -s 1 -d 2 -p ping -e 64 -c 0 -i 7 -a 0 -x {1.0 4.0 -1 ------- null}
h -t 0.104 -s 1 -d 2 -p ping -e 64 -c 0 -i 7 -a 0 -x {1.0 4.0 -1 ------- null}
+ -t 0.105 -s 0 -d 2 -p ping -e 64 -c 0 -i 8 -a 0 -x {0.0 5.0 -1 ------- null}
- -t 0.105 -s 0 -d 2 -p ping -e 64 -c 0 -i 8 -a 0 -x {0.0 5.0 -1 ------- null}
h -t 0.105 -s 0 -d 2 -p ping -e 64 -c 0 -i 8 -a 0 -x {0.0 5.0 -1 ------- null}
+ -t 0.105 -s 1 -d 2 -p ping -e 64 -c 0 -i 9 -a 0 -x {1.0 4.0 -1 ------- null}
- -t 0.105 -s 1 -d 2 -p ping -e 64 -c 0 -i 9 -a 0 -x {1.0 4.0 -1 ------- null}
h -t 0.105 -s 1 -d 2 -p ping -e 64 -c 0 -i 9 -a 0 -x {1.0 4.0 -1 ------- null}
+ -t 0.106 -s 0 -d 2 -p ping -e 64 -c 0 -i 10 -a 0 -x {0.0 5.0 -1 ------- null}
- -t 0.106 -s 0 -d 2 -p ping -e 64 -c 0 -i 10 -a 0 -x {0.0 5.0 -1 ------- null}
h -t 0.106 -s 0 -d 2 -p ping -e 64 -c 0 -i 10 -a 0 -x {0.0 5.0 -1 ------- null}
+ -t 0.106 -s 1 -d 2 -p ping -e 64 -c 0 -i 11 -a 0 -x {1.0 4.0 -1 ------- null}
- -t 0.106 -s 1 -d 2 -p ping -e 64 -c 0 -i 11 -a 0 -x {1.0 4.0 -1 ------- null}
h -t 0.106 -s 1 -d 2 -p ping -e 64 -c 0 -i 11 -a 0 -x {1.0 4.0 -1 ------- null}
r -t 0.106128 -s 0 -d 2 -p ping -e 64 -c 0 -i 0 -a 0 -x {0.0 5.0 -1 ------- null}
+ -t 0.106128 -s 2 -d 3 -p ping -e 64 -c 0 -i 0 -a 0 -x {0.0 5.0 -1 ------- null}
- -t 0.106128 -s 2 -d 3 -p ping -e 64 -c 0 -i 0 -a 0 -x {0.0 5.0 -1 ------- null}
h -t 0.106128 -s 2 -d 3 -p ping -e 64 -c 0 -i 0 -a 0 -x {0.0 5.0 -1 ------- null}
r -t 0.106128 -s 1 -d 2 -p ping -e 64 -c 0 -i 1 -a 0 -x {1.0 4.0 -1 ------- null}
+ -t 0.106128 -s 2 -d 3 -p ping -e 64 -c 0 -i 1 -a 0 -x {1.0 4.0 -1 ------- null}
- -t 0.106256 -s 2 -d 3 -p ping -e 64 -c 0 -i 1 -a 0 -x {1.0 4.0 -1 ------- null}
h -t 0.106256 -s 2 -d 3 -p ping -e 64 -c 0 -i 1 -a 0 -x {1.0 4.0 -1 ------- null}
+ -t 0.107 -s 0 -d 2 -p ping -e 64 -c 0 -i 12 -a 0 -x {0.0 5.0 -1 ------- null}
- -t 0.107 -s 0 -d 2 -p ping -e 64 -c 0 -i 12 -a 0 -x {0.0 5.0 -1 ------- null}
h -t 0.107 -s 0 -d 2 -p ping -e 64 -c 0 -i 12 -a 0 -x {0.0 5.0 -1 ------- null}
+ -t 0.107 -s 1 -d 2 -p ping -e 64 -c 0 -i 13 -a 0 -x {1.0 4.0 -1 ------- null}
- -t 0.107 -s 1 -d 2 -p ping -e 64 -c 0 -i 13 -a 0 -x {1.0 4.0 -1 ------- null}
h -t 0.107 -s 1 -d 2 -p ping -e 64 -c 0 -i 13 -a 0 -x {1.0 4.0 -1 ------- null}
r -t 0.107128 -s 0 -d 2 -p ping -e 64 -c 0 -i 2 -a 0 -x {0.0 5.0 -1 ------- null}
+ -t 0.107128 -s 2 -d 3 -p ping -e 64 -c 0 -i 2 -a 0 -x {0.0 5.0 -1 ------- null}
- -t 0.107128 -s 2 -d 3 -p ping -e 64 -c 0 -i 2 -a 0 -x {0.0 5.0 -1 ------- null}
h -t 0.107128 -s 2 -d 3 -p ping -e 64 -c 0 -i 2 -a 0 -x {0.0 5.0 -1 ------- null}
r -t 0.107128 -s 1 -d 2 -p ping -e 64 -c 0 -i 3 -a 0 -x {1.0 4.0 -1 ------- null}
+ -t 0.107128 -s 2 -d 3 -p ping -e 64 -c 0 -i 3 -a 0 -x {1.0 4.0 -1 ------- null}
- -t 0.107256 -s 2 -d 3 -p ping -e 64 -c 0 -i 3 -a 0 -x {1.0 4.0 -1 ------- null}
h -t 0.107256 -s 2 -d 3 -p ping -e 64 -c 0 -i 3 -a 0 -x {1.0 4.0 -1 ------- null}
+ -t 0.108 -s 0 -d 2 -p ping -e 64 -c 0 -i 14 -a 0 -x {0.0 5.0 -1 ------- null}
- -t 0.108 -s 0 -d 2 -p ping -e 64 -c 0 -i 14 -a 0 -x {0.0 5.0 -1 ------- null}
h -t 0.108 -s 0 -d 2 -p ping -e 64 -c 0 -i 14 -a 0 -x {0.0 5.0 -1 ------- null}
+ -t 0.108 -s 1 -d 2 -p ping -e 64 -c 0 -i 15 -a 0 -x {1.0 4.0 -1 ------- null}
- -t 0.108 -s 1 -d 2 -p ping -e 64 -c 0 -i 15 -a 0 -x {1.0 4.0 -1 ------- null}
h -t 0.108 -s 1 -d 2 -p ping -e 64 -c 0 -i 15 -a 0 -x {1.0 4.0 -1 ------- null}
r -t 0.108128 -s 0 -d 2 -p ping -e 64 -c 0 -i 4 -a 0 -x {0.0 5.0 -1 ------- null}
+ -t 0.108128 -s 2 -d 3 -p ping -e 64 -c 0 -i 4 -a 0 -x {0.0 5.0 -1 ------- null}
- -t 0.108128 -s 2 -d 3 -p ping -e 64 -c 0 -i 4 -a 0 -x {0.0 5.0 -1 ------- null}
h -t 0.108128 -s 2 -d 3 -p ping -e 64 -c 0 -i 4 -a 0 -x {0.0 5.0 -1 ------- null}
r -t 0.108128 -s 1 -d 2 -p ping -e 64 -c 0 -i 5 -a 0 -x {1.0 4.0 -1 ------- null}
+ -t 0.108128 -s 2 -d 3 -p ping -e 64 -c 0 -i 5 -a 0 -x {1.0 4.0 -1 ------- null}
- -t 0.108256 -s 2 -d 3 -p ping -e 64 -c 0 -i 5 -a 0 -x {1.0 4.0 -1 ------- null}
h -t 0.108256 -s 2 -d 3 -p ping -e 64 -c 0 -i 5 -a 0 -x {1.0 4.0 -1 ------- null}
+ -t 0.109 -s 0 -d 2 -p ping -e 64 -c 0 -i 16 -a 0 -x {0.0 5.0 -1 ------- null}
- -t 0.109 -s 0 -d 2 -p ping -e 64 -c 0 -i 16 -a 0 -x {0.0 5.0 -1 ------- null}
h -t 0.109 -s 0 -d 2 -p ping -e 64 -c 0 -i 16 -a 0 -x {0.0 5.0 -1 ------- null}
+ -t 0.109 -s 1 -d 2 -p ping -e 64 -c 0 -i 17 -a 0 -x {1.0 4.0 -1 ------- null}
- -t 0.109 -s 1 -d 2 -p ping -e 64 -c 0 -i 17 -a 0 -x {1.0 4.0 -1 ------- null}
h -t 0.109 -s 1 -d 2 -p ping -e 64 -c 0 -i 17 -a 0 -x {1.0 4.0 -1 ------- null}
r -t 0.109128 -s 0 -d 2 -p ping -e 64 -c 0 -i 6 -a 0 -x {0.0 5.0 -1 ------- null}
+ -t 0.109128 -s 2 -d 3 -p ping -e 64 -c 0 -i 6 -a 0 -x {0.0 5.0 -1 ------- null}
- -t 0.109128 -s 2 -d 3 -p ping -e 64 -c 0 -i 6 -a 0 -x {0.0 5.0 -1 ------- null}
h -t 0.109128 -s 2 -d 3 -p ping -e 64 -c 0 -i 6 -a 0 -x {0.0 5.0 -1 ------- null}
r -t 0.109128 -s 1 -d 2 -p ping -e 64 -c 0 -i 7 -a 0 -x {1.0 4.0 -1 ------- null}
+ -t 0.109128 -s 2 -d 3 -p ping -e 64 -c 0 -i 7 -a 0 -x {1.0 4.0 -1 ------- null}
- -t 0.109256 -s 2 -d 3 -p ping -e 64 -c 0 -i 7 -a 0 -x {1.0 4.0 -1 ------- null}
h -t 0.109256 -s 2 -d 3 -p ping -e 64 -c 0 -i 7 -a 0 -x {1.0 4.0 -1 ------- null}
+ -t 0.11 -s 0 -d 2 -p ping -e 64 -c 0 -i 18 -a 0 -x {0.0 5.0 -1 ------- null}
- -t 0.11 -s 0 -d 2 -p ping -e 64 -c 0 -i 18 -a 0 -x {0.0 5.0 -1 ------- null}
h -t 0.11 -s 0 -d 2 -p ping -e 64 -c 0 -i 18 -a 0 -x {0.0 5.0 -1 ------- null}
+ -t 0.11 -s 1 -d 2 -p ping -e 64 -c 0 -i 19 -a 0 -x {1.0 4.0 -1 ------- null}
- -t 0.11 -s 1 -d 2 -p ping -e 64 -c 0 -i 19 -a 0 -x {1.0 4.0 -1 ------- null}
h -t 0.11 -s 1 -d 2 -p ping -e 64 -c 0 -i 19 -a 0 -x {1.0 4.0 -1 ------- null}
r -t 0.110128 -s 0 -d 2 -p ping -e 64 -c 0 -i 8 -a 0 -x {0.0 5.0 -1 ------- null}
+ -t 0.110128 -s 2 -d 3 -p ping -e 64 -c 0 -i 8 -a 0 -x {0.0 5.0 -1 ------- null}
- -t 0.110128 -s 2 -d 3 -p ping -e 64 -c 0 -i 8 -a 0 -x {0.0 5.0 -1 ------- null}
h -t 0.110128 -s 2 -d 3 -p ping -e 64 -c 0 -i 8 -a 0 -x {0.0 5.0 -1 ------- null}
r -t 0.110128 -s 1 -d 2 -p ping -e 64 -c 0 -i 9 -a 0 -x {1.0 4.0 -1 ------- null}
+ -t 0.110128 -s 2 -d 3 -p ping -e 64 -c 0 -i 9 -a 0 -x {1.0 4.0 -1 ------- null}
- -t 0.110256 -s 2 -d 3 -p ping -e 64 -c 0 -i 9 -a 0 -x {1.0 4.0 -1 ------- null}
h -t 0.110256 -s 2 -d 3 -p ping -e 64 -c 0 -i 9 -a 0 -x {1.0 4.0 -1 ------- null}
+ -t 0.111 -s 0 -d 2 -p ping -e 64 -c 0 -i 20 -a 0 -x {0.0 5.0 -1 ------- null}
- -t 0.111 -s 0 -d 2 -p ping -e 64 -c 0 -i 20 -a 0 -x {0.0 5.0 -1 ------- null}
h -t 0.111 -s 0 -d 2 -p ping -e 64 -c 0 -i 20 -a 0 -x {0.0 5.0 -1 ------- null}
+ -t 0.111 -s 1 -d 2 -p ping -e 64 -c 0 -i 21 -a 0 -x {1.0 4.0 -1 ------- null}
- -t 0.111 -s 1 -d 2 -p ping -e 64 -c 0 -i 21 -a 0 -x {1.0 4.0 -1 ------- null}
h -t 0.111 -s 1 -d 2 -p ping -e 64 -c 0 -i 21 -a 0 -x {1.0 4.0 -1 ------- null}
r -t 0.111128 -s 0 -d 2 -p ping -e 64 -c 0 -i 10 -a 0 -x {0.0 5.0 -1 ------- null}
+ -t 0.111128 -s 2 -d 3 -p ping -e 64 -c 0 -i 10 -a 0 -x {0.0 5.0 -1 ------- null}
- -t 0.111128 -s 2 -d 3 -p ping -e 64 -c 0 -i 10 -a 0 -x {0.0 5.0 -1 ------- null}
h -t 0.111128 -s 2 -d 3 -p ping -e 64 -c 0 -i 10 -a 0 -x {0.0 5.0 -1 ------- null}
r -t 0.111128 -s 1 -d 2 -p ping -e 64 -c 0 -i 11 -a 0 -x {1.0 4.0 -1 ------- null}
+ -t 0.111128 -s 2 -d 3 -p ping -e 64 -c 0 -i 11 -a 0 -x {1.0 4.0 -1 ------- null}
- -t 0.111256 -s 2 -d 3 -p ping -e 64 -c 0 -i 11 -a 0 -x {1.0 4.0 -1 ------- null}
h -t 0.111256 -s 2 -d 3 -p ping -e 64 -c 0 -i 11 -a 0 -x {1.0 4.0 -1 ------- null}
+ -t 0.112 -s 0 -d 2 -p ping -e 64 -c 0 -i 22 -a 0 -x {0.0 5.0 -1 ------- null}
- -t 0.112 -s 0 -d 2 -p ping -e 64 -c 0 -i 22 -a 0 -x {0.0 5.0 -1 ------- null}
h -t 0.112 -s 0 -d 2 -p ping -e 64 -c 0 -i 22 -a 0 -x {0.0 5.0 -1 ------- null}
+ -t 0.112 -s 1 -d 2 -p ping -e 64 -c 0 -i 23 -a 0 -x {1.0 4.0 -1 ------- null}
- -t 0.112 -s 1 -d 2 -p ping -e 64 -c 0 -i 23 -a 0 -x {1.0 4.0 -1 ------- null}
h -t 0.112 -s 1 -d 2 -p ping -e 64 -c 0 -i 23 -a 0 -x {1.0 4.0 -1 ------- null}
r -t 0.112128 -s 0 -d 2 -p ping -e 64 -c 0 -i 12 -a 0 -x {0.0 5.0 -1 ------- null}
+ -t 0.112128 -s 2 -d 3 -p ping -e 64 -c 0 -i 12 -a 0 -x {0.0 5.0 -1 ------- null}
- -t 0.112128 -s 2 -d 3 -p ping -e 64 -c 0 -i 12 -a 0 -x {0.0 5.0 -1 ------- null}
h -t 0.112128 -s 2 -d 3 -p ping -e 64 -c 0 -i 12 -a 0 -x {0.0 5.0 -1 ------- null}
r -t 0.112128 -s 1 -d 2 -p ping -e 64 -c 0 -i 13 -a 0 -x {1.0 4.0 -1 ------- null}
+ -t 0.112128 -s 2 -d 3 -p ping -e 64 -c 0 -i 13 -a 0 -x {1.0 4.0 -1 ------- null}
- -t 0.112256 -s 2 -d 3 -p ping -e 64 -c 0 -i 13 -a 0 -x {1.0 4.0 -1 ------- null}
h -t 0.112256 -s 2 -d 3 -p ping -e 64 -c 0 -i 13 -a 0 -x {1.0 4.0 -1 ------- null}
+ -t 0.113 -s 0 -d 2 -p ping -e 64 -c 0 -i 24 -a 0 -x {0.0 5.0 -1 ------- null}
- -t 0.113 -s 0 -d 2 -p ping -e 64 -c 0 -i 24 -a 0 -x {0.0 5.0 -1 ------- null}
h -t 0.113 -s 0 -d 2 -p ping -e 64 -c 0 -i 24 -a 0 -x {0.0 5.0 -1 ------- null}
+ -t 0.113 -s 1 -d 2 -p ping -e 64 -c 0 -i 25 -a 0 -x {1.0 4.0 -1 ------- null}
- -t 0.113 -s 1 -d 2 -p ping -e 64 -c 0 -i 25 -a 0 -x {1.0 4.0 -1 ------- null}
h -t 0.113 -s 1 -d 2 -p ping -e 64 -c 0 -i 25 -a 0 -x {1.0 4.0 -1 ------- null}
r -t 0.113128 -s 0 -d 2 -p ping -e 64 -c 0 -i 14 -a 0 -x {0.0 5.0 -1 ------- null}
+ -t 0.113128 -s 2 -d 3 -p ping -e 64 -c 0 -i 14 -a 0 -x {0.0 5.0 -1 ------- null}
- -t 0.113128 -s 2 -d 3 -p ping -e 64 -c 0 -i 14 -a 0 -x {0.0 5.0 -1 ------- null}
h -t 0.113128 -s 2 -d 3 -p ping -e 64 -c 0 -i 14 -a 0 -x {0.0 5.0 -1 ------- null}
r -t 0.113128 -s 1 -d 2 -p ping -e 64 -c 0 -i 15 -a 0 -x {1.0 4.0 -1 ------- null}
+ -t 0.113128 -s 2 -d 3 -p ping -e 64 -c 0 -i 15 -a 0 -x {1.0 4.0 -1 ------- null}
- -t 0.113256 -s 2 -d 3 -p ping -e 64 -c 0 -i 15 -a 0 -x {1.0 4.0 -1 ------- null}
h -t 0.113256 -s 2 -d 3 -p ping -e 64 -c 0 -i 15 -a 0 -x {1.0 4.0 -1 ------- null}
+ -t 0.114 -s 0 -d 2 -p ping -e 64 -c 0 -i 26 -a 0 -x {0.0 5.0 -1 ------- null}
- -t 0.114 -s 0 -d 2 -p ping -e 64 -c 0 -i 26 -a 0 -x {0.0 5.0 -1 ------- null}
h -t 0.114 -s 0 -d 2 -p ping -e 64 -c 0 -i 26 -a 0 -x {0.0 5.0 -1 ------- null}
+ -t 0.114 -s 1 -d 2 -p ping -e 64 -c 0 -i 27 -a 0 -x {1.0 4.0 -1 ------- null}
- -t 0.114 -s 1 -d 2 -p ping -e 64 -c 0 -i 27 -a 0 -x {1.0 4.0 -1 ------- null}
h -t 0.114 -s 1 -d 2 -p ping -e 64 -c 0 -i 27 -a 0 -x {1.0 4.0 -1 ------- null}
r -t 0.114128 -s 0 -d 2 -p ping -e 64 -c 0 -i 16 -a 0 -x {0.0 5.0 -1 ------- null}
+ -t 0.114128 -s 2 -d 3 -p ping -e 64 -c 0 -i 16 -a 0 -x {0.0 5.0 -1 ------- null}
- -t 0.114128 -s 2 -d 3 -p ping -e 64 -c 0 -i 16 -a 0 -x {0.0 5.0 -1 ------- null}
h -t 0.114128 -s 2 -d 3 -p ping -e 64 -c 0 -i 16 -a 0 -x {0.0 5.0 -1 ------- null}
r -t 0.114128 -s 1 -d 2 -p ping -e 64 -c 0 -i 17 -a 0 -x {1.0 4.0 -1 ------- null}
+ -t 0.114128 -s 2 -d 3 -p ping -e 64 -c 0 -i 17 -a 0 -x {1.0 4.0 -1 ------- null}
- -t 0.114256 -s 2 -d 3 -p ping -e 64 -c 0 -i 17 -a 0 -x {1.0 4.0 -1 ------- null}
h -t 0.114256 -s 2 -d 3 -p ping -e 64 -c 0 -i 17 -a 0 -x {1.0 4.0 -1 ------- null}
+ -t 0.115 -s 0 -d 2 -p ping -e 64 -c 0 -i 28 -a 0 -x {0.0 5.0 -1 ------- null}
- -t 0.115 -s 0 -d 2 -p ping -e 64 -c 0 -i 28 -a 0 -x {0.0 5.0 -1 ------- null}
h -t 0.115 -s 0 -d 2 -p ping -e 64 -c 0 -i 28 -a 0 -x {0.0 5.0 -1 ------- null}
+ -t 0.115 -s 1 -d 2 -p ping -e 64 -c 0 -i 29 -a 0 -x {1.0 4.0 -1 ------- null}
- -t 0.115 -s 1 -d 2 -p ping -e 64 -c 0 -i 29 -a 0 -x {1.0 4.0 -1 ------- null}
h -t 0.115 -s 1 -d 2 -p ping -e 64 -c 0 -i 29 -a 0 -x {1.0 4.0 -1 ------- null}
r -t 0.115128 -s 0 -d 2 -p ping -e 64 -c 0 -i 18 -a 0 -x {0.0 5.0 -1 ------- null}
+ -t 0.115128 -s 2 -d 3 -p ping -e 64 -c 0 -i 18 -a 0 -x {0.0 5.0 -1 ------- null}
- -t 0.115128 -s 2 -d 3 -p ping -e 64 -c 0 -i 18 -a 0 -x {0.0 5.0 -1 ------- null}
h -t 0.115128 -s 2 -d 3 -p ping -e 64 -c 0 -i 18 -a 0 -x {0.0 5.0 -1 ------- null}
r -t 0.115128 -s 1 -d 2 -p ping -e 64 -c 0 -i 19 -a 0 -x {1.0 4.0 -1 ------- null}
+ -t 0.115128 -s 2 -d 3 -p ping -e 64 -c 0 -i 19 -a 0 -x {1.0 4.0 -1 ------- null}
- -t 0.115256 -s 2 -d 3 -p ping -e 64 -c 0 -i 19 -a 0 -x {1.0 4.0 -1 ------- null}
h -t 0.115256 -s 2 -d 3 -p ping -e 64 -c 0 -i 19 -a 0 -x {1.0 4.0 -1 ------- null}
+ -t 0.116 -s 0 -d 2 -p ping -e 64 -c 0 -i 30 -a 0 -x {0.0 5.0 -1 ------- null}
- -t 0.116 -s 0 -d 2 -p ping -e 64 -c 0 -i 30 -a 0 -x {0.0 5.0 -1 ------- null}
h -t 0.116 -s 0 -d 2 -p ping -e 64 -c 0 -i 30 -a 0 -x {0.0 5.0 -1 ------- null}
+ -t 0.116 -s 1 -d 2 -p ping -e 64 -c 0 -i 31 -a 0 -x {1.0 4.0 -1 ------- null}
- -t 0.116 -s 1 -d 2 -p ping -e 64 -c 0 -i 31 -a 0 -x {1.0 4.0 -1 ------- null}
h -t 0.116 -s 1 -d 2 -p ping -e 64 -c 0 -i 31 -a 0 -x {1.0 4.0 -1 ------- null}
r -t 0.116128 -s 0 -d 2 -p ping -e 64 -c 0 -i 20 -a 0 -x {0.0 5.0 -1 ------- null}
+ -t 0.116128 -s 2 -d 3 -p ping -e 64 -c 0 -i 20 -a 0 -x {0.0 5.0 -1 ------- null}
- -t 0.116128 -s 2 -d 3 -p ping -e 64 -c 0 -i 20 -a 0 -x {0.0 5.0 -1 ------- null}
h -t 0.116128 -s 2 -d 3 -p ping -e 64 -c 0 -i 20 -a 0 -x {0.0 5.0 -1 ------- null}
r -t 0.116128 -s 1 -d 2 -p ping -e 64 -c 0 -i 21 -a 0 -x {1.0 4.0 -1 ------- null}
+ -t 0.116128 -s 2 -d 3 -p ping -e 64 -c 0 -i 21 -a 0 -x {1.0 4.0 -1 ------- null}
- -t 0.116256 -s 2 -d 3 -p ping -e 64 -c 0 -i 21 -a 0 -x {1.0 4.0 -1 ------- null}
h -t 0.116256 -s 2 -d 3 -p ping -e 64 -c 0 -i 21 -a 0 -x {1.0 4.0 -1 ------- null}
+ -t 0.117 -s 0 -d 2 -p ping -e 64 -c 0 -i 32 -a 0 -x {0.0 5.0 -1 ------- null}
- -t 0.117 -s 0 -d 2 -p ping -e 64 -c 0 -i 32 -a 0 -x {0.0 5.0 -1 ------- null}
h -t 0.117 -s 0 -d 2 -p ping -e 64 -c 0 -i 32 -a 0 -x {0.0 5.0 -1 ------- null}
+ -t 0.117 -s 1 -d 2 -p ping -e 64 -c 0 -i 33 -a 0 -x {1.0 4.0 -1 ------- null}
- -t 0.117 -s 1 -d 2 -p ping -e 64 -c 0 -i 33 -a 0 -x {1.0 4.0 -1 ------- null}
h -t 0.117 -s 1 -d 2 -p ping -e 64 -c 0 -i 33 -a 0 -x {1.0 4.0 -1 ------- null}
r -t 0.117128 -s 0 -d 2 -p ping -e 64 -c 0 -i 22 -a 0 -x {0.0 5.0 -1 ------- null}
+ -t 0.117128 -s 2 -d 3 -p ping -e 64 -c 0 -i 22 -a 0 -x {0.0 5.0 -1 ------- null}
- -t 0.117128 -s 2 -d 3 -p ping -e 64 -c 0 -i 22 -a 0 -x {0.0 5.0 -1 ------- null}
h -t 0.117128 -s 2 -d 3 -p ping -e 64 -c 0 -i 22 -a 0 -x {0.0 5.0 -1 ------- null}
r -t 0.117128 -s 1 -d 2 -p ping -e 64 -c 0 -i 23 -a 0 -x {1.0 4.0 -1 ------- null}
+ -t 0.117128 -s 2 -d 3 -p ping -e 64 -c 0 -i 23 -a 0 -x {1.0 4.0 -1 ------- null}
- -t 0.117256 -s 2 -d 3 -p ping -e 64 -c 0 -i 23 -a 0 -x {1.0 4.0 -1 ------- null}
h -t 0.117256 -s 2 -d 3 -p ping -e 64 -c 0 -i 23 -a 0 -x {1.0 4.0 -1 ------- null}
+ -t 0.118 -s 0 -d 2 -p ping -e 64 -c 0 -i 34 -a 0 -x {0.0 5.0 -1 ------- null}
- -t 0.118 -s 0 -d 2 -p ping -e 64 -c 0 -i 34 -a 0 -x {0.0 5.0 -1 ------- null}
h -t 0.118 -s 0 -d 2 -p ping -e 64 -c 0 -i 34 -a 0 -x {0.0 5.0 -1 ------- null}
+ -t 0.118 -s 1 -d 2 -p ping -e 64 -c 0 -i 35 -a 0 -x {1.0 4.0 -1 ------- null}
- -t 0.118 -s 1 -d 2 -p ping -e 64 -c 0 -i 35 -a 0 -x {1.0 4.0 -1 ------- null}
h -t 0.118 -s 1 -d 2 -p ping -e 64 -c 0 -i 35 -a 0 -x {1.0 4.0 -1 ------- null}
r -t 0.118128 -s 0 -d 2 -p ping -e 64 -c 0 -i 24 -a 0 -x {0.0 5.0 -1 ------- null}
+ -t 0.118128 -s 2 -d 3 -p ping -e 64 -c 0 -i 24 -a 0 -x {0.0 5.0 -1 ------- null}
- -t 0.118128 -s 2 -d 3 -p ping -e 64 -c 0 -i 24 -a 0 -x {0.0 5.0 -1 ------- null}
h -t 0.118128 -s 2 -d 3 -p ping -e 64 -c 0 -i 24 -a 0 -x {0.0 5.0 -1 ------- null}
r -t 0.118128 -s 1 -d 2 -p ping -e 64 -c 0 -i 25 -a 0 -x {1.0 4.0 -1 ------- null}
+ -t 0.118128 -s 2 -d 3 -p ping -e 64 -c 0 -i 25 -a 0 -x {1.0 4.0 -1 ------- null}
- -t 0.118256 -s 2 -d 3 -p ping -e 64 -c 0 -i 25 -a 0 -x {1.0 4.0 -1 ------- null}
h -t 0.118256 -s 2 -d 3 -p ping -e 64 -c 0 -i 25 -a 0 -x {1.0 4.0 -1 ------- null}
+ -t 0.119 -s 0 -d 2 -p ping -e 64 -c 0 -i 36 -a 0 -x {0.0 5.0 -1 ------- null}
- -t 0.119 -s 0 -d 2 -p ping -e 64 -c 0 -i 36 -a 0 -x {0.0 5.0 -1 ------- null}
h -t 0.119 -s 0 -d 2 -p ping -e 64 -c 0 -i 36 -a 0 -x {0.0 5.0 -1 ------- null}
+ -t 0.119 -s 1 -d 2 -p ping -e 64 -c 0 -i 37 -a 0 -x {1.0 4.0 -1 ------- null}
- -t 0.119 -s 1 -d 2 -p ping -e 64 -c 0 -i 37 -a 0 -x {1.0 4.0 -1 ------- null}
h -t 0.119 -s 1 -d 2 -p ping -e 64 -c 0 -i 37 -a 0 -x {1.0 4.0 -1 ------- null}
r -t 0.119128 -s 0 -d 2 -p ping -e 64 -c 0 -i 26 -a 0 -x {0.0 5.0 -1 ------- null}
+ -t 0.119128 -s 2 -d 3 -p ping -e 64 -c 0 -i 26 -a 0 -x {0.0 5.0 -1 ------- null}
- -t 0.119128 -s 2 -d 3 -p ping -e 64 -c 0 -i 26 -a 0 -x {0.0 5.0 -1 ------- null}
h -t 0.119128 -s 2 -d 3 -p ping -e 64 -c 0 -i 26 -a 0 -x {0.0 5.0 -1 ------- null}
r -t 0.119128 -s 1 -d 2 -p ping -e 64 -c 0 -i 27 -a 0 -x {1.0 4.0 -1 ------- null}
+ -t 0.119128 -s 2 -d 3 -p ping -e 64 -c 0 -i 27 -a 0 -x {1.0 4.0 -1 ------- null}
- -t 0.119256 -s 2 -d 3 -p ping -e 64 -c 0 -i 27 -a 0 -x {1.0 4.0 -1 ------- null}
h -t 0.119256 -s 2 -d 3 -p ping -e 64 -c 0 -i 27 -a 0 -x {1.0 4.0 -1 ------- null}
+ -t 0.12 -s 0 -d 2 -p ping -e 64 -c 0 -i 38 -a 0 -x {0.0 5.0 -1 ------- null}
- -t 0.12 -s 0 -d 2 -p ping -e 64 -c 0 -i 38 -a 0 -x {0.0 5.0 -1 ------- null}
h -t 0.12 -s 0 -d 2 -p ping -e 64 -c 0 -i 38 -a 0 -x {0.0 5.0 -1 ------- null}
+ -t 0.12 -s 1 -d 2 -p ping -e 64 -c 0 -i 39 -a 0 -x {1.0 4.0 -1 ------- null}
- -t 0.12 -s 1 -d 2 -p ping -e 64 -c 0 -i 39 -a 0 -x {1.0 4.0 -1 ------- null}
h -t 0.12 -s 1 -d 2 -p ping -e 64 -c 0 -i 39 -a 0 -x {1.0 4.0 -1 ------- null}
r -t 0.120128 -s 0 -d 2 -p ping -e 64 -c 0 -i 28 -a 0 -x {0.0 5.0 -1 ------- null}
+ -t 0.120128 -s 2 -d 3 -p ping -e 64 -c 0 -i 28 -a 0 -x {0.0 5.0 -1 ------- null}
- -t 0.120128 -s 2 -d 3 -p ping -e 64 -c 0 -i 28 -a 0 -x {0.0 5.0 -1 ------- null}
h -t 0.120128 -s 2 -d 3 -p ping -e 64 -c 0 -i 28 -a 0 -x {0.0 5.0 -1 ------- null}
r -t 0.120128 -s 1 -d 2 -p ping -e 64 -c 0 -i 29 -a 0 -x {1.0 4.0 -1 ------- null}
+ -t 0.120128 -s 2 -d 3 -p ping -e 64 -c 0 -i 29 -a 0 -x {1.0 4.0 -1 ------- null}
- -t 0.120256 -s 2 -d 3 -p ping -e 64 -c 0 -i 29 -a 0 -x {1.0 4.0 -1 ------- null}
h -t 0.120256 -s 2 -d 3 -p ping -e 64 -c 0 -i 29 -a 0 -x {1.0 4.0 -1 ------- null}
+ -t 0.121 -s 0 -d 2 -p ping -e 64 -c 0 -i 40 -a 0 -x {0.0 5.0 -1 ------- null}
- -t 0.121 -s 0 -d 2 -p ping -e 64 -c 0 -i 40 -a 0 -x {0.0 5.0 -1 ------- null}
h -t 0.121 -s 0 -d 2 -p ping -e 64 -c 0 -i 40 -a 0 -x {0.0 5.0 -1 ------- null}
+ -t 0.121 -s 1 -d 2 -p ping -e 64 -c 0 -i 41 -a 0 -x {1.0 4.0 -1 ------- null}
- -t 0.121 -s 1 -d 2 -p ping -e 64 -c 0 -i 41 -a 0 -x {1.0 4.0 -1 ------- null}
h -t 0.121 -s 1 -d 2 -p ping -e 64 -c 0 -i 41 -a 0 -x {1.0 4.0 -1 ------- null}
r -t 0.121128 -s 0 -d 2 -p ping -e 64 -c 0 -i 30 -a 0 -x {0.0 5.0 -1 ------- null}
+ -t 0.121128 -s 2 -d 3 -p ping -e 64 -c 0 -i 30 -a 0 -x {0.0 5.0 -1 ------- null}
- -t 0.121128 -s 2 -d 3 -p ping -e 64 -c 0 -i 30 -a 0 -x {0.0 5.0 -1 ------- null}
h -t 0.121128 -s 2 -d 3 -p ping -e 64 -c 0 -i 30 -a 0 -x {0.0 5.0 -1 ------- null}
r -t 0.121128 -s 1 -d 2 -p ping -e 64 -c 0 -i 31 -a 0 -x {1.0 4.0 -1 ------- null}
+ -t 0.121128 -s 2 -d 3 -p ping -e 64 -c 0 -i 31 -a 0 -x {1.0 4.0 -1 ------- null}
r -t 0.121256 -s 2 -d 3 -p ping -e 64 -c 0 -i 0 -a 0 -x {0.0 5.0 -1 ------- null}
+ -t 0.121256 -s 3 -d 5 -p ping -e 64 -c 0 -i 0 -a 0 -x {0.0 5.0 -1 ------- null}
- -t 0.121256 -s 3 -d 5 -p ping -e 64 -c 0 -i 0 -a 0 -x {0.0 5.0 -1 ------- null}
h -t 0.121256 -s 3 -d 5 -p ping -e 64 -c 0 -i 0 -a 0 -x {0.0 5.0 -1 ------- null}
- -t 0.121256 -s 2 -d 3 -p ping -e 64 -c 0 -i 31 -a 0 -x {1.0 4.0 -1 ------- null}
h -t 0.121256 -s 2 -d 3 -p ping -e 64 -c 0 -i 31 -a 0 -x {1.0 4.0 -1 ------- null}
r -t 0.121384 -s 2 -d 3 -p ping -e 64 -c 0 -i 1 -a 0 -x {1.0 4.0 -1 ------- null}
+ -t 0.121384 -s 3 -d 4 -p ping -e 64 -c 0 -i 1 -a 0 -x {1.0 4.0 -1 ------- null}
- -t 0.121384 -s 3 -d 4 -p ping -e 64 -c 0 -i 1 -a 0 -x {1.0 4.0 -1 ------- null}
h -t 0.121384 -s 3 -d 4 -p ping -e 64 -c 0 -i 1 -a 0 -x {1.0 4.0 -1 ------- null}
+ -t 0.122 -s 0 -d 2 -p ping -e 64 -c 0 -i 42 -a 0 -x {0.0 5.0 -1 ------- null}
- -t 0.122 -s 0 -d 2 -p ping -e 64 -c 0 -i 42 -a 0 -x {0.0 5.0 -1 ------- null}
h -t 0.122 -s 0 -d 2 -p ping -e 64 -c 0 -i 42 -a 0 -x {0.0 5.0 -1 ------- null}
+ -t 0.122 -s 1 -d 2 -p ping -e 64 -c 0 -i 43 -a 0 -x {1.0 4.0 -1 ------- null}
- -t 0.122 -s 1 -d 2 -p ping -e 64 -c 0 -i 43 -a 0 -x {1.0 4.0 -1 ------- null}
h -t 0.122 -s 1 -d 2 -p ping -e 64 -c 0 -i 43 -a 0 -x {1.0 4.0 -1 ------- null}
r -t 0.122128 -s 0 -d 2 -p ping -e 64 -c 0 -i 32 -a 0 -x {0.0 5.0 -1 ------- null}
+ -t 0.122128 -s 2 -d 3 -p ping -e 64 -c 0 -i 32 -a 0 -x {0.0 5.0 -1 ------- null}
- -t 0.122128 -s 2 -d 3 -p ping -e 64 -c 0 -i 32 -a 0 -x {0.0 5.0 -1 ------- null}
h -t 0.122128 -s 2 -d 3 -p ping -e 64 -c 0 -i 32 -a 0 -x {0.0 5.0 -1 ------- null}
r -t 0.122128 -s 1 -d 2 -p ping -e 64 -c 0 -i 33 -a 0 -x {1.0 4.0 -1 ------- null}
+ -t 0.122128 -s 2 -d 3 -p ping -e 64 -c 0 -i 33 -a 0 -x {1.0 4.0 -1 ------- null}
r -t 0.122256 -s 2 -d 3 -p ping -e 64 -c 0 -i 2 -a 0 -x {0.0 5.0 -1 ------- null}
+ -t 0.122256 -s 3 -d 5 -p ping -e 64 -c 0 -i 2 -a 0 -x {0.0 5.0 -1 ------- null}
- -t 0.122256 -s 3 -d 5 -p ping -e 64 -c 0 -i 2 -a 0 -x {0.0 5.0 -1 ------- null}
h -t 0.122256 -s 3 -d 5 -p ping -e 64 -c 0 -i 2 -a 0 -x {0.0 5.0 -1 ------- null}
- -t 0.122256 -s 2 -d 3 -p ping -e 64 -c 0 -i 33 -a 0 -x {1.0 4.0 -1 ------- null}
h -t 0.122256 -s 2 -d 3 -p ping -e 64 -c 0 -i 33 -a 0 -x {1.0 4.0 -1 ------- null}
r -t 0.122384 -s 2 -d 3 -p ping -e 64 -c 0 -i 3 -a 0 -x {1.0 4.0 -1 ------- null}
+ -t 0.122384 -s 3 -d 4 -p ping -e 64 -c 0 -i 3 -a 0 -x {1.0 4.0 -1 ------- null}
- -t 0.122384 -s 3 -d 4 -p ping -e 64 -c 0 -i 3 -a 0 -x {1.0 4.0 -1 ------- null}
h -t 0.122384 -s 3 -d 4 -p ping -e 64 -c 0 -i 3 -a 0 -x {1.0 4.0 -1 ------- null}
+ -t 0.123 -s 0 -d 2 -p ping -e 64 -c 0 -i 44 -a 0 -x {0.0 5.0 -1 ------- null}
- -t 0.123 -s 0 -d 2 -p ping -e 64 -c 0 -i 44 -a 0 -x {0.0 5.0 -1 ------- null}
h -t 0.123 -s 0 -d 2 -p ping -e 64 -c 0 -i 44 -a 0 -x {0.0 5.0 -1 ------- null}
+ -t 0.123 -s 1 -d 2 -p ping -e 64 -c 0 -i 45 -a 0 -x {1.0 4.0 -1 ------- null}
- -t 0.123 -s 1 -d 2 -p ping -e 64 -c 0 -i 45 -a 0 -x {1.0 4.0 -1 ------- null}
h -t 0.123 -s 1 -d 2 -p ping -e 64 -c 0 -i 45 -a 0 -x {1.0 4.0 -1 ------- null}
r -t 0.123128 -s 0 -d 2 -p ping -e 64 -c 0 -i 34 -a 0 -x {0.0 5.0 -1 ------- null}
+ -t 0.123128 -s 2 -d 3 -p ping -e 64 -c 0 -i 34 -a 0 -x {0.0 5.0 -1 ------- null}
- -t 0.123128 -s 2 -d 3 -p ping -e 64 -c 0 -i 34 -a 0 -x {0.0 5.0 -1 ------- null}
h -t 0.123128 -s 2 -d 3 -p ping -e 64 -c 0 -i 34 -a 0 -x {0.0 5.0 -1 ------- null}
r -t 0.123128 -s 1 -d 2 -p ping -e 64 -c 0 -i 35 -a 0 -x {1.0 4.0 -1 ------- null}
+ -t 0.123128 -s 2 -d 3 -p ping -e 64 -c 0 -i 35 -a 0 -x {1.0 4.0 -1 ------- null}
r -t 0.123256 -s 2 -d 3 -p ping -e 64 -c 0 -i 4 -a 0 -x {0.0 5.0 -1 ------- null}
+ -t 0.123256 -s 3 -d 5 -p ping -e 64 -c 0 -i 4 -a 0 -x {0.0 5.0 -1 ------- null}
- -t 0.123256 -s 3 -d 5 -p ping -e 64 -c 0 -i 4 -a 0 -x {0.0 5.0 -1 ------- null}
h -t 0.123256 -s 3 -d 5 -p ping -e 64 -c 0 -i 4 -a 0 -x {0.0 5.0 -1 ------- null}
- -t 0.123256 -s 2 -d 3 -p ping -e 64 -c 0 -i 35 -a 0 -x {1.0 4.0 -1 ------- null}
h -t 0.123256 -s 2 -d 3 -p ping -e 64 -c 0 -i 35 -a 0 -x {1.0 4.0 -1 ------- null}
r -t 0.123384 -s 2 -d 3 -p ping -e 64 -c 0 -i 5 -a 0 -x {1.0 4.0 -1 ------- null}
+ -t 0.123384 -s 3 -d 4 -p ping -e 64 -c 0 -i 5 -a 0 -x {1.0 4.0 -1 ------- null}
- -t 0.123384 -s 3 -d 4 -p ping -e 64 -c 0 -i 5 -a 0 -x {1.0 4.0 -1 ------- null}
h -t 0.123384 -s 3 -d 4 -p ping -e 64 -c 0 -i 5 -a 0 -x {1.0 4.0 -1 ------- null}
+ -t 0.124 -s 0 -d 2 -p ping -e 64 -c 0 -i 46 -a 0 -x {0.0 5.0 -1 ------- null}
- -t 0.124 -s 0 -d 2 -p ping -e 64 -c 0 -i 46 -a 0 -x {0.0 5.0 -1 ------- null}
h -t 0.124 -s 0 -d 2 -p ping -e 64 -c 0 -i 46 -a 0 -x {0.0 5.0 -1 ------- null}
+ -t 0.124 -s 1 -d 2 -p ping -e 64 -c 0 -i 47 -a 0 -x {1.0 4.0 -1 ------- null}
- -t 0.124 -s 1 -d 2 -p ping -e 64 -c 0 -i 47 -a 0 -x {1.0 4.0 -1 ------- null}
h -t 0.124 -s 1 -d 2 -p ping -e 64 -c 0 -i 47 -a 0 -x {1.0 4.0 -1 ------- null}
r -t 0.124128 -s 0 -d 2 -p ping -e 64 -c 0 -i 36 -a 0 -x {0.0 5.0 -1 ------- null}
+ -t 0.124128 -s 2 -d 3 -p ping -e 64 -c 0 -i 36 -a 0 -x {0.0 5.0 -1 ------- null}
- -t 0.124128 -s 2 -d 3 -p ping -e 64 -c 0 -i 36 -a 0 -x {0.0 5.0 -1 ------- null}
h -t 0.124128 -s 2 -d 3 -p ping -e 64 -c 0 -i 36 -a 0 -x {0.0 5.0 -1 ------- null}
r -t 0.124128 -s 1 -d 2 -p ping -e 64 -c 0 -i 37 -a 0 -x {1.0 4.0 -1 ------- null}
+ -t 0.124128 -s 2 -d 3 -p ping -e 64 -c 0 -i 37 -a 0 -x {1.0 4.0 -1 ------- null}
r -t 0.124256 -s 2 -d 3 -p ping -e 64 -c 0 -i 6 -a 0 -x {0.0 5.0 -1 ------- null}
+ -t 0.124256 -s 3 -d 5 -p ping -e 64 -c 0 -i 6 -a 0 -x {0.0 5.0 -1 ------- null}
- -t 0.124256 -s 3 -d 5 -p ping -e 64 -c 0 -i 6 -a 0 -x {0.0 5.0 -1 ------- null}
h -t 0.124256 -s 3 -d 5 -p ping -e 64 -c 0 -i 6 -a 0 -x {0.0 5.0 -1 ------- null}
- -t 0.124256 -s 2 -d 3 -p ping -e 64 -c 0 -i 37 -a 0 -x {1.0 4.0 -1 ------- null}
h -t 0.124256 -s 2 -d 3 -p ping -e 64 -c 0 -i 37 -a 0 -x {1.0 4.0 -1 ------- null}
r -t 0.124384 -s 2 -d 3 -p ping -e 64 -c 0 -i 7 -a 0 -x {1.0 4.0 -1 ------- null}
+ -t 0.124384 -s 3 -d 4 -p ping -e 64 -c 0 -i 7 -a 0 -x {1.0 4.0 -1 ------- null}
- -t 0.124384 -s 3 -d 4 -p ping -e 64 -c 0 -i 7 -a 0 -x {1.0 4.0 -1 ------- null}
h -t 0.124384 -s 3 -d 4 -p ping -e 64 -c 0 -i 7 -a 0 -x {1.0 4.0 -1 ------- null}
+ -t 0.125 -s 0 -d 2 -p ping -e 64 -c 0 -i 48 -a 0 -x {0.0 5.0 -1 ------- null}
- -t 0.125 -s 0 -d 2 -p ping -e 64 -c 0 -i 48 -a 0 -x {0.0 5.0 -1 ------- null}
h -t 0.125 -s 0 -d 2 -p ping -e 64 -c 0 -i 48 -a 0 -x {0.0 5.0 -1 ------- null}
+ -t 0.125 -s 1 -d 2 -p ping -e 64 -c 0 -i 49 -a 0 -x {1.0 4.0 -1 ------- null}
- -t 0.125 -s 1 -d 2 -p ping -e 64 -c 0 -i 49 -a 0 -x {1.0 4.0 -1 ------- null}
h -t 0.125 -s 1 -d 2 -p ping -e 64 -c 0 -i 49 -a 0 -x {1.0 4.0 -1 ------- null}
r -t 0.125128 -s 0 -d 2 -p ping -e 64 -c 0 -i 38 -a 0 -x {0.0 5.0 -1 ------- null}
+ -t 0.125128 -s 2 -d 3 -p ping -e 64 -c 0 -i 38 -a 0 -x {0.0 5.0 -1 ------- null}
- -t 0.125128 -s 2 -d 3 -p ping -e 64 -c 0 -i 38 -a 0 -x {0.0 5.0 -1 ------- null}
h -t 0.125128 -s 2 -d 3 -p ping -e 64 -c 0 -i 38 -a 0 -x {0.0 5.0 -1 ------- null}
r -t 0.125128 -s 1 -d 2 -p ping -e 64 -c 0 -i 39 -a 0 -x {1.0 4.0 -1 ------- null}
+ -t 0.125128 -s 2 -d 3 -p ping -e 64 -c 0 -i 39 -a 0 -x {1.0 4.0 -1 ------- null}
r -t 0.125256 -s 2 -d 3 -p ping -e 64 -c 0 -i 8 -a 0 -x {0.0 5.0 -1 ------- null}
+ -t 0.125256 -s 3 -d 5 -p ping -e 64 -c 0 -i 8 -a 0 -x {0.0 5.0 -1 ------- null}
- -t 0.125256 -s 3 -d 5 -p ping -e 64 -c 0 -i 8 -a 0 -x {0.0 5.0 -1 ------- null}
h -t 0.125256 -s 3 -d 5 -p ping -e 64 -c 0 -i 8 -a 0 -x {0.0 5.0 -1 ------- null}
- -t 0.125256 -s 2 -d 3 -p ping -e 64 -c 0 -i 39 -a 0 -x {1.0 4.0 -1 ------- null}
h -t 0.125256 -s 2 -d 3 -p ping -e 64 -c 0 -i 39 -a 0 -x {1.0 4.0 -1 ------- null}
r -t 0.125384 -s 2 -d 3 -p ping -e 64 -c 0 -i 9 -a 0 -x {1.0 4.0 -1 ------- null}
+ -t 0.125384 -s 3 -d 4 -p ping -e 64 -c 0 -i 9 -a 0 -x {1.0 4.0 -1 ------- null}
- -t 0.125384 -s 3 -d 4 -p ping -e 64 -c 0 -i 9 -a 0 -x {1.0 4.0 -1 ------- null}
h -t 0.125384 -s 3 -d 4 -p ping -e 64 -c 0 -i 9 -a 0 -x {1.0 4.0 -1 ------- null}
+ -t 0.126 -s 0 -d 2 -p ping -e 64 -c 0 -i 50 -a 0 -x {0.0 5.0 -1 ------- null}
- -t 0.126 -s 0 -d 2 -p ping -e 64 -c 0 -i 50 -a 0 -x {0.0 5.0 -1 ------- null}
h -t 0.126 -s 0 -d 2 -p ping -e 64 -c 0 -i 50 -a 0 -x {0.0 5.0 -1 ------- null}
+ -t 0.126 -s 1 -d 2 -p ping -e 64 -c 0 -i 51 -a 0 -x {1.0 4.0 -1 ------- null}
- -t 0.126 -s 1 -d 2 -p ping -e 64 -c 0 -i 51 -a 0 -x {1.0 4.0 -1 ------- null}
h -t 0.126 -s 1 -d 2 -p ping -e 64 -c 0 -i 51 -a 0 -x {1.0 4.0 -1 ------- null}
r -t 0.126128 -s 0 -d 2 -p ping -e 64 -c 0 -i 40 -a 0 -x {0.0 5.0 -1 ------- null}
+ -t 0.126128 -s 2 -d 3 -p ping -e 64 -c 0 -i 40 -a 0 -x {0.0 5.0 -1 ------- null}
- -t 0.126128 -s 2 -d 3 -p ping -e 64 -c 0 -i 40 -a 0 -x {0.0 5.0 -1 ------- null}