V -t * -v 1.0a5 -a 0
A -t * -n 1 -p 0 -o 0x7fffffff -c 30 -a 1
A -t * -h 1 -m 1073741823 -s 0
c -t * -i 1 -n red
c -t * -i 2 -n blue
n -t * -a 4 -s 4 -S UP -v circle -c black -i black
n -t * -a 0 -s 0 -S UP -v circle -c black -i black
n -t * -a 5 -s 5 -S UP -v circle -c black -i black
n -t * -a 1 -s 1 -S UP -v circle -c black -i black
n -t * -a 6 -s 6 -S UP -v circle -c black -i black
n -t * -a 2 -s 2 -S UP -v circle -c black -i black
n -t * -a 7 -s 7 -S UP -v circle -c black -i black
n -t * -a 3 -s 3 -S UP -v circle -c black -i black
l -t * -s 2 -d 4 -S UP -r 1000000 -D 0.050000000000000003 -c black -o right
X -t * -n 8 -r 10Mb -D 100ms -o left
L -t * -s 8 -d 0 -o up
L -t * -s 8 -d 1 -o down
L -t * -s 8 -d 2 -o up
L -t * -s 8 -d 3 -o down
X -t * -n 9 -r 10Mb -D 50ms -o left
L -t * -s 9 -d 4 -o up
L -t * -s 9 -d 5 -o down
L -t * -s 9 -d 6 -o up
L -t * -s 9 -d 7 -o down
h -t 0 -s 0 -d 8 -p tcp -e 40 -c 1 -i 0 -a 1 -x {0.0 5.0 0 ------- null}
+ -t 0.1 -s 0 -d 8 -p tcp -e 40 -c 1 -i 0 -a 1 -x {0.0 5.0 0 ------- null}
- -t 0.1 -s 0 -d 8 -p tcp -e 40 -c 1 -i 0 -a 1 -x {0.0 5.0 0 ------- null}
h -t 0.1 -s 0 -d 8 -p tcp -e 40 -c 1 -i 0 -a 1 -x {0.0 5.0 -1 ------- null}
r -t 0.2000552 -s 8 -d 2 -p tcp -e 40 -c 1 -i 0 -a 1 -x {0.0 5.0 0 ------- null}
+ -t 0.2000552 -s 2 -d 4 -p tcp -e 40 -c 1 -i 0 -a 1 -x {0.0 5.0 0 ------- null}
- -t 0.2000552 -s 2 -d 4 -p tcp -e 40 -c 1 -i 0 -a 1 -x {0.0 5.0 0 ------- null}
h -t 0.2000552 -s 2 -d 4 -p tcp -e 40 -c 1 -i 0 -a 1 -x {0.0 5.0 -1 ------- null}
r -t 0.2503752 -s 2 -d 4 -p tcp -e 40 -c 1 -i 0 -a 1 -x {0.0 5.0 0 ------- null}
h -t 0.2503752 -s 4 -d 9 -p tcp -e 40 -c 1 -i 0 -a 1 -x {0.0 5.0 0 ------- null}
+ -t 0.3003752 -s 4 -d 9 -p tcp -e 40 -c 1 -i 0 -a 1 -x {0.0 5.0 0 ------- null}
- -t 0.3003752 -s 4 -d 9 -p tcp -e 40 -c 1 -i 0 -a 1 -x {0.0 5.0 0 ------- null}
h -t 0.3003752 -s 4 -d 9 -p tcp -e 40 -c 1 -i 0 -a 1 -x {0.0 5.0 -1 ------- null}
r -t 0.3504304 -s 9 -d 5 -p tcp -e 40 -c 1 -i 0 -a 1 -x {0.0 5.0 0 ------- null}
h -t 0.3504304 -s 5 -d 9 -p ack -e 40 -c 1 -i 1 -a 1 -x {5.0 0.0 0 ------- null}
+ -t 0.4004304 -s 5 -d 9 -p ack -e 40 -c 1 -i 1 -a 1 -x {5.0 0.0 0 ------- null}
- -t 0.4004304 -s 5 -d 9 -p ack -e 40 -c 1 -i 1 -a 1 -x {5.0 0.0 0 ------- null}
h -t 0.4004304 -s 5 -d 9 -p ack -e 40 -c 1 -i 1 -a 1 -x {5.0 0.0 -1 ------- null}
r -t 0.4504856 -s 9 -d 4 -p ack -e 40 -c 1 -i 1 -a 1 -x {5.0 0.0 0 ------- null}
+ -t 0.4504856 -s 4 -d 2 -p ack -e 40 -c 1 -i 1 -a 1 -x {5.0 0.0 0 ------- null}
- -t 0.4504856 -s 4 -d 2 -p ack -e 40 -c 1 -i 1 -a 1 -x {5.0 0.0 0 ------- null}
h -t 0.4504856 -s 4 -d 2 -p ack -e 40 -c 1 -i 1 -a 1 -x {5.0 0.0 -1 ------- null}
r -t 0.5008056 -s 4 -d 2 -p ack -e 40 -c 1 -i 1 -a 1 -x {5.0 0.0 0 ------- null}
h -t 0.5008056 -s 2 -d 8 -p ack -e 40 -c 1 -i 1 -a 1 -x {5.0 0.0 0 ------- null}
+ -t 0.6008056 -s 2 -d 8 -p ack -e 40 -c 1 -i 1 -a 1 -x {5.0 0.0 0 ------- null}
- -t 0.6008056 -s 2 -d 8 -p ack -e 40 -c 1 -i 1 -a 1 -x {5.0 0.0 0 ------- null}
h -t 0.6008056 -s 2 -d 8 -p ack -e 40 -c 1 -i 1 -a 1 -x {5.0 0.0 -1 ------- null}
r -t 0.7008608 -s 8 -d 0 -p ack -e 40 -c 1 -i 1 -a 1 -x {5.0 0.0 0 ------- null}
h -t 0.7008608 -s 0 -d 8 -p tcp -e 1040 -c 1 -i 2 -a 1 -x {0.0 5.0 1 ------- null}
h -t 0.7008608 -s 0 -d 8 -p tcp -e 1040 -c 1 -i 3 -a 1 -x {0.0 5.0 2 ------- null}
+ -t 0.8008608 -s 0 -d 8 -p tcp -e 1040 -c 1 -i 2 -a 1 -x {0.0 5.0 1 ------- null}
- -t 0.8008608 -s 0 -d 8 -p tcp -e 1040 -c 1 -i 2 -a 1 -x {0.0 5.0 1 ------- null}
h -t 0.8008608 -s 0 -d 8 -p tcp -e 1040 -c 1 -i 2 -a 1 -x {0.0 5.0 -1 ------- null}
+ -t 0.8008608 -s 0 -d 8 -p tcp -e 1040 -c 1 -i 3 -a 1 -x {0.0 5.0 2 ------- null}
- -t 0.8017136 -s 0 -d 8 -p tcp -e 1040 -c 1 -i 3 -a 1 -x {0.0 5.0 2 ------- null}
h -t 0.8017136 -s 0 -d 8 -p tcp -e 1040 -c 1 -i 3 -a 1 -x {0.0 5.0 -1 ------- null}
r -t 0.901708 -s 8 -d 2 -p tcp -e 1040 -c 1 -i 2 -a 1 -x {0.0 5.0 1 ------- null}
+ -t 0.901708 -s 2 -d 4 -p tcp -e 1040 -c 1 -i 2 -a 1 -x {0.0 5.0 1 ------- null}
- -t 0.901708 -s 2 -d 4 -p tcp -e 1040 -c 1 -i 2 -a 1 -x {0.0 5.0 1 ------- null}
h -t 0.901708 -s 2 -d 4 -p tcp -e 1040 -c 1 -i 2 -a 1 -x {0.0 5.0 -1 ------- null}
r -t 0.9025608 -s 8 -d 2 -p tcp -e 1040 -c 1 -i 3 -a 1 -x {0.0 5.0 2 ------- null}
+ -t 0.9025608 -s 2 -d 4 -p tcp -e 1040 -c 1 -i 3 -a 1 -x {0.0 5.0 2 ------- null}
- -t 0.910028 -s 2 -d 4 -p tcp -e 1040 -c 1 -i 3 -a 1 -x {0.0 5.0 2 ------- null}
h -t 0.910028 -s 2 -d 4 -p tcp -e 1040 -c 1 -i 3 -a 1 -x {0.0 5.0 -1 ------- null}
r -t 0.960028 -s 2 -d 4 -p tcp -e 1040 -c 1 -i 2 -a 1 -x {0.0 5.0 1 ------- null}
h -t 0.960028 -s 4 -d 9 -p tcp -e 1040 -c 1 -i 2 -a 1 -x {0.0 5.0 1 ------- null}
r -t 0.968348 -s 2 -d 4 -p tcp -e 1040 -c 1 -i 3 -a 1 -x {0.0 5.0 2 ------- null}
h -t 0.968348 -s 4 -d 9 -p tcp -e 1040 -c 1 -i 3 -a 1 -x {0.0 5.0 2 ------- null}
+ -t 1.010028 -s 4 -d 9 -p tcp -e 1040 -c 1 -i 2 -a 1 -x {0.0 5.0 1 ------- null}
- -t 1.010028 -s 4 -d 9 -p tcp -e 1040 -c 1 -i 2 -a 1 -x {0.0 5.0 1 ------- null}
h -t 1.010028 -s 4 -d 9 -p tcp -e 1040 -c 1 -i 2 -a 1 -x {0.0 5.0 -1 ------- null}
+ -t 1.018348 -s 4 -d 9 -p tcp -e 1040 -c 1 -i 3 -a 1 -x {0.0 5.0 2 ------- null}
- -t 1.018348 -s 4 -d 9 -p tcp -e 1040 -c 1 -i 3 -a 1 -x {0.0 5.0 2 ------- null}
h -t 1.018348 -s 4 -d 9 -p tcp -e 1040 -c 1 -i 3 -a 1 -x {0.0 5.0 -1 ------- null}
r -t 1.0608752 -s 9 -d 5 -p tcp -e 1040 -c 1 -i 2 -a 1 -x {0.0 5.0 1 ------- null}
h -t 1.0608752 -s 5 -d 9 -p ack -e 40 -c 1 -i 4 -a 1 -x {5.0 0.0 1 ------- null}
r -t 1.0691952 -s 9 -d 5 -p tcp -e 1040 -c 1 -i 3 -a 1 -x {0.0 5.0 2 ------- null}
h -t 1.0691952 -s 5 -d 9 -p ack -e 40 -c 1 -i 5 -a 1 -x {5.0 0.0 2 ------- null}
+ -t 1.1108752 -s 5 -d 9 -p ack -e 40 -c 1 -i 4 -a 1 -x {5.0 0.0 1 ------- null}
- -t 1.1108752 -s 5 -d 9 -p ack -e 40 -c 1 -i 4 -a 1 -x {5.0 0.0 1 ------- null}
h -t 1.1108752 -s 5 -d 9 -p ack -e 40 -c 1 -i 4 -a 1 -x {5.0 0.0 -1 ------- null}
+ -t 1.1191952 -s 5 -d 9 -p ack -e 40 -c 1 -i 5 -a 1 -x {5.0 0.0 2 ------- null}
- -t 1.1191952 -s 5 -d 9 -p ack -e 40 -c 1 -i 5 -a 1 -x {5.0 0.0 2 ------- null}
h -t 1.1191952 -s 5 -d 9 -p ack -e 40 -c 1 -i 5 -a 1 -x {5.0 0.0 -1 ------- null}
r -t 1.1609304 -s 9 -d 4 -p ack -e 40 -c 1 -i 4 -a 1 -x {5.0 0.0 1 ------- null}
+ -t 1.1609304 -s 4 -d 2 -p ack -e 40 -c 1 -i 4 -a 1 -x {5.0 0.0 1 ------- null}
- -t 1.1609304 -s 4 -d 2 -p ack -e 40 -c 1 -i 4 -a 1 -x {5.0 0.0 1 ------- null}
h -t 1.1609304 -s 4 -d 2 -p ack -e 40 -c 1 -i 4 -a 1 -x {5.0 0.0 -1 ------- null}
r -t 1.1692504 -s 9 -d 4 -p ack -e 40 -c 1 -i 5 -a 1 -x {5.0 0.0 2 ------- null}
+ -t 1.1692504 -s 4 -d 2 -p ack -e 40 -c 1 -i 5 -a 1 -x {5.0 0.0 2 ------- null}
- -t 1.1692504 -s 4 -d 2 -p ack -e 40 -c 1 -i 5 -a 1 -x {5.0 0.0 2 ------- null}
h -t 1.1692504 -s 4 -d 2 -p ack -e 40 -c 1 -i 5 -a 1 -x {5.0 0.0 -1 ------- null}
r -t 1.2112504 -s 4 -d 2 -p ack -e 40 -c 1 -i 4 -a 1 -x {5.0 0.0 1 ------- null}
h -t 1.2112504 -s 2 -d 8 -p ack -e 40 -c 1 -i 4 -a 1 -x {5.0 0.0 1 ------- null}
r -t 1.2195704 -s 4 -d 2 -p ack -e 40 -c 1 -i 5 -a 1 -x {5.0 0.0 2 ------- null}
h -t 1.2195704 -s 2 -d 8 -p ack -e 40 -c 1 -i 5 -a 1 -x {5.0 0.0 2 ------- null}
+ -t 1.3112504 -s 2 -d 8 -p ack -e 40 -c 1 -i 4 -a 1 -x {5.0 0.0 1 ------- null}
- -t 1.3112504 -s 2 -d 8 -p ack -e 40 -c 1 -i 4 -a 1 -x {5.0 0.0 1 ------- null}
h -t 1.3112504 -s 2 -d 8 -p ack -e 40 -c 1 -i 4 -a 1 -x {5.0 0.0 -1 ------- null}
+ -t 1.3195704 -s 2 -d 8 -p ack -e 40 -c 1 -i 5 -a 1 -x {5.0 0.0 2 ------- null}
- -t 1.3195704 -s 2 -d 8 -p ack -e 40 -c 1 -i 5 -a 1 -x {5.0 0.0 2 ------- null}
h -t 1.3195704 -s 2 -d 8 -p ack -e 40 -c 1 -i 5 -a 1 -x {5.0 0.0 -1 ------- null}
r -t 1.4113056 -s 8 -d 0 -p ack -e 40 -c 1 -i 4 -a 1 -x {5.0 0.0 1 ------- null}
h -t 1.4113056 -s 0 -d 8 -p tcp -e 1040 -c 1 -i 6 -a 1 -x {0.0 5.0 3 ------- null}
h -t 1.4113056 -s 0 -d 8 -p tcp -e 1040 -c 1 -i 7 -a 1 -x {0.0 5.0 4 ------- null}
r -t 1.4196256 -s 8 -d 0 -p ack -e 40 -c 1 -i 5 -a 1 -x {5.0 0.0 2 ------- null}
h -t 1.4196256 -s 0 -d 8 -p tcp -e 1040 -c 1 -i 8 -a 1 -x {0.0 5.0 5 ------- null}
h -t 1.4196256 -s 0 -d 8 -p tcp -e 1040 -c 1 -i 9 -a 1 -x {0.0 5.0 6 ------- null}
+ -t 1.5113056 -s 0 -d 8 -p tcp -e 1040 -c 1 -i 6 -a 1 -x {0.0 5.0 3 ------- null}
- -t 1.5113056 -s 0 -d 8 -p tcp -e 1040 -c 1 -i 6 -a 1 -x {0.0 5.0 3 ------- null}
h -t 1.5113056 -s 0 -d 8 -p tcp -e 1040 -c 1 -i 6 -a 1 -x {0.0 5.0 -1 ------- null}
+ -t 1.5113056 -s 0 -d 8 -p tcp -e 1040 -c 1 -i 7 -a 1 -x {0.0 5.0 4 ------- null}
- -t 1.5121584 -s 0 -d 8 -p tcp -e 1040 -c 1 -i 7 -a 1 -x {0.0 5.0 4 ------- null}
h -t 1.5121584 -s 0 -d 8 -p tcp -e 1040 -c 1 -i 7 -a 1 -x {0.0 5.0 -1 ------- null}
+ -t 1.5196256 -s 0 -d 8 -p tcp -e 1040 -c 1 -i 8 -a 1 -x {0.0 5.0 5 ------- null}
- -t 1.5196256 -s 0 -d 8 -p tcp -e 1040 -c 1 -i 8 -a 1 -x {0.0 5.0 5 ------- null}
h -t 1.5196256 -s 0 -d 8 -p tcp -e 1040 -c 1 -i 8 -a 1 -x {0.0 5.0 -1 ------- null}
+ -t 1.5196256 -s 0 -d 8 -p tcp -e 1040 -c 1 -i 9 -a 1 -x {0.0 5.0 6 ------- null}
- -t 1.5204784 -s 0 -d 8 -p tcp -e 1040 -c 1 -i 9 -a 1 -x {0.0 5.0 6 ------- null}
h -t 1.5204784 -s 0 -d 8 -p tcp -e 1040 -c 1 -i 9 -a 1 -x {0.0 5.0 -1 ------- null}
r -t 1.6121528 -s 8 -d 2 -p tcp -e 1040 -c 1 -i 6 -a 1 -x {0.0 5.0 3 ------- null}
+ -t 1.6121528 -s 2 -d 4 -p tcp -e 1040 -c 1 -i 6 -a 1 -x {0.0 5.0 3 ------- null}
- -t 1.6121528 -s 2 -d 4 -p tcp -e 1040 -c 1 -i 6 -a 1 -x {0.0 5.0 3 ------- null}
h -t 1.6121528 -s 2 -d 4 -p tcp -e 1040 -c 1 -i 6 -a 1 -x {0.0 5.0 -1 ------- null}
r -t 1.6130056 -s 8 -d 2 -p tcp -e 1040 -c 1 -i 7 -a 1 -x {0.0 5.0 4 ------- null}
+ -t 1.6130056 -s 2 -d 4 -p tcp -e 1040 -c 1 -i 7 -a 1 -x {0.0 5.0 4 ------- null}
r -t 1.6204728 -s 8 -d 2 -p tcp -e 1040 -c 1 -i 8 -a 1 -x {0.0 5.0 5 ------- null}
+ -t 1.6204728 -s 2 -d 4 -p tcp -e 1040 -c 1 -i 8 -a 1 -x {0.0 5.0 5 ------- null}
- -t 1.6204728 -s 2 -d 4 -p tcp -e 1040 -c 1 -i 7 -a 1 -x {0.0 5.0 4 ------- null}
h -t 1.6204728 -s 2 -d 4 -p tcp -e 1040 -c 1 -i 7 -a 1 -x {0.0 5.0 -1 ------- null}
r -t 1.6213256 -s 8 -d 2 -p tcp -e 1040 -c 1 -i 9 -a 1 -x {0.0 5.0 6 ------- null}
+ -t 1.6213256 -s 2 -d 4 -p tcp -e 1040 -c 1 -i 9 -a 1 -x {0.0 5.0 6 ------- null}
- -t 1.6287928 -s 2 -d 4 -p tcp -e 1040 -c 1 -i 8 -a 1 -x {0.0 5.0 5 ------- null}
h -t 1.6287928 -s 2 -d 4 -p tcp -e 1040 -c 1 -i 8 -a 1 -x {0.0 5.0 -1 ------- null}
- -t 1.6371128 -s 2 -d 4 -p tcp -e 1040 -c 1 -i 9 -a 1 -x {0.0 5.0 6 ------- null}
h -t 1.6371128 -s 2 -d 4 -p tcp -e 1040 -c 1 -i 9 -a 1 -x {0.0 5.0 -1 ------- null}
r -t 1.6704728 -s 2 -d 4 -p tcp -e 1040 -c 1 -i 6 -a 1 -x {0.0 5.0 3 ------- null}
h -t 1.6704728 -s 4 -d 9 -p tcp -e 1040 -c 1 -i 6 -a 1 -x {0.0 5.0 3 ------- null}
r -t 1.6787928 -s 2 -d 4 -p tcp -e 1040 -c 1 -i 7 -a 1 -x {0.0 5.0 4 ------- null}
h -t 1.6787928 -s 4 -d 9 -p tcp -e 1040 -c 1 -i 7 -a 1 -x {0.0 5.0 4 ------- null}
r -t 1.6871128 -s 2 -d 4 -p tcp -e 1040 -c 1 -i 8 -a 1 -x {0.0 5.0 5 ------- null}
h -t 1.6871128 -s 4 -d 9 -p tcp -e 1040 -c 1 -i 8 -a 1 -x {0.0 5.0 5 ------- null}
r -t 1.6954328 -s 2 -d 4 -p tcp -e 1040 -c 1 -i 9 -a 1 -x {0.0 5.0 6 ------- null}
h -t 1.6954328 -s 4 -d 9 -p tcp -e 1040 -c 1 -i 9 -a 1 -x {0.0 5.0 6 ------- null}
+ -t 1.7204728 -s 4 -d 9 -p tcp -e 1040 -c 1 -i 6 -a 1 -x {0.0 5.0 3 ------- null}
- -t 1.7204728 -s 4 -d 9 -p tcp -e 1040 -c 1 -i 6 -a 1 -x {0.0 5.0 3 ------- null}
h -t 1.7204728 -s 4 -d 9 -p tcp -e 1040 -c 1 -i 6 -a 1 -x {0.0 5.0 -1 ------- null}
+ -t 1.7287928 -s 4 -d 9 -p tcp -e 1040 -c 1 -i 7 -a 1 -x {0.0 5.0 4 ------- null}
- -t 1.7287928 -s 4 -d 9 -p tcp -e 1040 -c 1 -i 7 -a 1 -x {0.0 5.0 4 ------- null}
h -t 1.7287928 -s 4 -d 9 -p tcp -e 1040 -c 1 -i 7 -a 1 -x {0.0 5.0 -1 ------- null}
+ -t 1.7371128 -s 4 -d 9 -p tcp -e 1040 -c 1 -i 8 -a 1 -x {0.0 5.0 5 ------- null}
- -t 1.7371128 -s 4 -d 9 -p tcp -e 1040 -c 1 -i 8 -a 1 -x {0.0 5.0 5 ------- null}
h -t 1.7371128 -s 4 -d 9 -p tcp -e 1040 -c 1 -i 8 -a 1 -x {0.0 5.0 -1 ------- null}
+ -t 1.7454328 -s 4 -d 9 -p tcp -e 1040 -c 1 -i 9 -a 1 -x {0.0 5.0 6 ------- null}
- -t 1.7454328 -s 4 -d 9 -p tcp -e 1040 -c 1 -i 9 -a 1 -x {0.0 5.0 6 ------- null}
h -t 1.7454328 -s 4 -d 9 -p tcp -e 1040 -c 1 -i 9 -a 1 -x {0.0 5.0 -1 ------- null}
r -t 1.77132 -s 9 -d 5 -p tcp -e 1040 -c 1 -i 6 -a 1 -x {0.0 5.0 3 ------- null}
h -t 1.77132 -s 5 -d 9 -p ack -e 40 -c 1 -i 10 -a 1 -x {5.0 0.0 3 ------- null}
r -t 1.77964 -s 9 -d 5 -p tcp -e 1040 -c 1 -i 7 -a 1 -x {0.0 5.0 4 ------- null}
h -t 1.77964 -s 5 -d 9 -p ack -e 40 -c 1 -i 11 -a 1 -x {5.0 0.0 4 ------- null}
r -t 1.78796 -s 9 -d 5 -p tcp -e 1040 -c 1 -i 8 -a 1 -x {0.0 5.0 5 ------- null}
h -t 1.78796 -s 5 -d 9 -p ack -e 40 -c 1 -i 12 -a 1 -x {5.0 0.0 5 ------- null}
r -t 1.79628 -s 9 -d 5 -p tcp -e 1040 -c 1 -i 9 -a 1 -x {0.0 5.0 6 ------- null}
h -t 1.79628 -s 5 -d 9 -p ack -e 40 -c 1 -i 13 -a 1 -x {5.0 0.0 6 ------- null}
+ -t 1.82132 -s 5 -d 9 -p ack -e 40 -c 1 -i 10 -a 1 -x {5.0 0.0 3 ------- null}
- -t 1.82132 -s 5 -d 9 -p ack -e 40 -c 1 -i 10 -a 1 -x {5.0 0.0 3 ------- null}
h -t 1.82132 -s 5 -d 9 -p ack -e 40 -c 1 -i 10 -a 1 -x {5.0 0.0 -1 ------- null}
+ -t 1.82964 -s 5 -d 9 -p ack -e 40 -c 1 -i 11 -a 1 -x {5.0 0.0 4 ------- null}
- -t 1.82964 -s 5 -d 9 -p ack -e 40 -c 1 -i 11 -a 1 -x {5.0 0.0 4 ------- null}
h -t 1.82964 -s 5 -d 9 -p ack -e 40 -c 1 -i 11 -a 1 -x {5.0 0.0 -1 ------- null}
+ -t 1.83796 -s 5 -d 9 -p ack -e 40 -c 1 -i 12 -a 1 -x {5.0 0.0 5 ------- null}
- -t 1.83796 -s 5 -d 9 -p ack -e 40 -c 1 -i 12 -a 1 -x {5.0 0.0 5 ------- null}
h -t 1.83796 -s 5 -d 9 -p ack -e 40 -c 1 -i 12 -a 1 -x {5.0 0.0 -1 ------- null}
+ -t 1.84628 -s 5 -d 9 -p ack -e 40 -c 1 -i 13 -a 1 -x {5.0 0.0 6 ------- null}
- -t 1.84628 -s 5 -d 9 -p ack -e 40 -c 1 -i 13 -a 1 -x {5.0 0.0 6 ------- null}
h -t 1.84628 -s 5 -d 9 -p ack -e 40 -c 1 -i 13 -a 1 -x {5.0 0.0 -1 ------- null}
r -t 1.8713752 -s 9 -d 4 -p ack -e 40 -c 1 -i 10 -a 1 -x {5.0 0.0 3 ------- null}
+ -t 1.8713752 -s 4 -d 2 -p ack -e 40 -c 1 -i 10 -a 1 -x {5.0 0.0 3 ------- null}
- -t 1.8713752 -s 4 -d 2 -p ack -e 40 -c 1 -i 10 -a 1 -x {5.0 0.0 3 ------- null}
h -t 1.8713752 -s 4 -d 2 -p ack -e 40 -c 1 -i 10 -a 1 -x {5.0 0.0 -1 ------- null}
r -t 1.8796952 -s 9 -d 4 -p ack -e 40 -c 1 -i 11 -a 1 -x {5.0 0.0 4 ------- null}
+ -t 1.8796952 -s 4 -d 2 -p ack -e 40 -c 1 -i 11 -a 1 -x {5.0 0.0 4 ------- null}
- -t 1.8796952 -s 4 -d 2 -p ack -e 40 -c 1 -i 11 -a 1 -x {5.0 0.0 4 ------- null}
h -t 1.8796952 -s 4 -d 2 -p ack -e 40 -c 1 -i 11 -a 1 -x {5.0 0.0 -1 ------- null}
r -t 1.8880152 -s 9 -d 4 -p ack -e 40 -c 1 -i 12 -a 1 -x {5.0 0.0 5 ------- null}
+ -t 1.8880152 -s 4 -d 2 -p ack -e 40 -c 1 -i 12 -a 1 -x {5.0 0.0 5 ------- null}
- -t 1.8880152 -s 4 -d 2 -p ack -e 40 -c 1 -i 12 -a 1 -x {5.0 0.0 5 ------- null}
h -t 1.8880152 -s 4 -d 2 -p ack -e 40 -c 1 -i 12 -a 1 -x {5.0 0.0 -1 ------- null}
r -t 1.8963352 -s 9 -d 4 -p ack -e 40 -c 1 -i 13 -a 1 -x {5.0 0.0 6 ------- null}
+ -t 1.8963352 -s 4 -d 2 -p ack -e 40 -c 1 -i 13 -a 1 -x {5.0 0.0 6 ------- null}
- -t 1.8963352 -s 4 -d 2 -p ack -e 40 -c 1 -i 13 -a 1 -x {5.0 0.0 6 ------- null}
h -t 1.8963352 -s 4 -d 2 -p ack -e 40 -c 1 -i 13 -a 1 -x {5.0 0.0 -1 ------- null}
r -t 1.9216952 -s 4 -d 2 -p ack -e 40 -c 1 -i 10 -a 1 -x {5.0 0.0 3 ------- null}
h -t 1.9216952 -s 2 -d 8 -p ack -e 40 -c 1 -i 10 -a 1 -x {5.0 0.0 3 ------- null}
r -t 1.9300152 -s 4 -d 2 -p ack -e 40 -c 1 -i 11 -a 1 -x {5.0 0.0 4 ------- null}
h -t 1.9300152 -s 2 -d 8 -p ack -e 40 -c 1 -i 11 -a 1 -x {5.0 0.0 4 ------- null}
r -t 1.9383352 -s 4 -d 2 -p ack -e 40 -c 1 -i 12 -a 1 -x {5.0 0.0 5 ------- null}
h -t 1.9383352 -s 2 -d 8 -p ack -e 40 -c 1 -i 12 -a 1 -x {5.0 0.0 5 ------- null}
r -t 1.9466552 -s 4 -d 2 -p ack -e 40 -c 1 -i 13 -a 1 -x {5.0 0.0 6 ------- null}
h -t 1.9466552 -s 2 -d 8 -p ack -e 40 -c 1 -i 13 -a 1 -x {5.0 0.0 6 ------- null}
+ -t 2.0216952 -s 2 -d 8 -p ack -e 40 -c 1 -i 10 -a 1 -x {5.0 0.0 3 ------- null}
- -t 2.0216952 -s 2 -d 8 -p ack -e 40 -c 1 -i 10 -a 1 -x {5.0 0.0 3 ------- null}
h -t 2.0216952 -s 2 -d 8 -p ack -e 40 -c 1 -i 10 -a 1 -x {5.0 0.0 -1 ------- null}
+ -t 2.0300152 -s 2 -d 8 -p ack -e 40 -c 1 -i 11 -a 1 -x {5.0 0.0 4 ------- null}
- -t 2.0300152 -s 2 -d 8 -p ack -e 40 -c 1 -i 11 -a 1 -x {5.0 0.0 4 ------- null}
h -t 2.0300152 -s 2 -d 8 -p ack -e 40 -c 1 -i 11 -a 1 -x {5.0 0.0 -1 ------- null}
+ -t 2.0383352 -s 2 -d 8 -p ack -e 40 -c 1 -i 12 -a 1 -x {5.0 0.0 5 ------- null}
- -t 2.0383352 -s 2 -d 8 -p ack -e 40 -c 1 -i 12 -a 1 -x {5.0 0.0 5 ------- null}
h -t 2.0383352 -s 2 -d 8 -p ack -e 40 -c 1 -i 12 -a 1 -x {5.0 0.0 -1 ------- null}
+ -t 2.0466552 -s 2 -d 8 -p ack -e 40 -c 1 -i 13 -a 1 -x {5.0 0.0 6 ------- null}
- -t 2.0466552 -s 2 -d 8 -p ack -e 40 -c 1 -i 13 -a 1 -x {5.0 0.0 6 ------- null}
h -t 2.0466552 -s 2 -d 8 -p ack -e 40 -c 1 -i 13 -a 1 -x {5.0 0.0 -1 ------- null}
r -t 2.1217504 -s 8 -d 0 -p ack -e 40 -c 1 -i 10 -a 1 -x {5.0 0.0 3 ------- null}
h -t 2.1217504 -s 0 -d 8 -p tcp -e 1040 -c 1 -i 14 -a 1 -x {0.0 5.0 7 ------- null}
h -t 2.1217504 -s 0 -d 8 -p tcp -e 1040 -c 1 -i 15 -a 1 -x {0.0 5.0 8 ------- null}
r -t 2.1300704 -s 8 -d 0 -p ack -e 40 -c 1 -i 11 -a 1 -x {5.0 0.0 4 ------- null}
h -t 2.1300704 -s 0 -d 8 -p tcp -e 1040 -c 1 -i 16 -a 1 -x {0.0 5.0 9 ------- null}
h -t 2.1300704 -s 0 -d 8 -p tcp -e 1040 -c 1 -i 17 -a 1 -x {0.0 5.0 10 ------- null}
r -t 2.1383904 -s 8 -d 0 -p ack -e 40 -c 1 -i 12 -a 1 -x {5.0 0.0 5 ------- null}
h -t 2.1383904 -s 0 -d 8 -p tcp -e 1040 -c 1 -i 18 -a 1 -x {0.0 5.0 11 ------- null}
h -t 2.1383904 -s 0 -d 8 -p tcp -e 1040 -c 1 -i 19 -a 1 -x {0.0 5.0 12 ------- null}
r -t 2.1467104 -s 8 -d 0 -p ack -e 40 -c 1 -i 13 -a 1 -x {5.0 0.0 6 ------- null}
h -t 2.1467104 -s 0 -d 8 -p tcp -e 1040 -c 1 -i 20 -a 1 -x {0.0 5.0 13 ------- null}
h -t 2.1467104 -s 0 -d 8 -p tcp -e 1040 -c 1 -i 21 -a 1 -x {0.0 5.0 14 ------- null}
+ -t 2.2217504 -s 0 -d 8 -p tcp -e 1040 -c 1 -i 14 -a 1 -x {0.0 5.0 7 ------- null}
- -t 2.2217504 -s 0 -d 8 -p tcp -e 1040 -c 1 -i 14 -a 1 -x {0.0 5.0 7 ------- null}
h -t 2.2217504 -s 0 -d 8 -p tcp -e 1040 -c 1 -i 14 -a 1 -x {0.0 5.0 -1 ------- null}
+ -t 2.2217504 -s 0 -d 8 -p tcp -e 1040 -c 1 -i 15 -a 1 -x {0.0 5.0 8 ------- null}
- -t 2.2226032 -s 0 -d 8 -p tcp -e 1040 -c 1 -i 15 -a 1 -x {0.0 5.0 8 ------- null}
h -t 2.2226032 -s 0 -d 8 -p tcp -e 1040 -c 1 -i 15 -a 1 -x {0.0 5.0 -1 ------- null}
+ -t 2.2300704 -s 0 -d 8 -p tcp -e 1040 -c 1 -i 16 -a 1 -x {0.0 5.0 9 ------- null}
- -t 2.2300704 -s 0 -d 8 -p tcp -e 1040 -c 1 -i 16 -a 1 -x {0.0 5.0 9 ------- null}
h -t 2.2300704 -s 0 -d 8 -p tcp -e 1040 -c 1 -i 16 -a 1 -x {0.0 5.0 -1 ------- null}
+ -t 2.2300704 -s 0 -d 8 -p tcp -e 1040 -c 1 -i 17 -a 1 -x {0.0 5.0 10 ------- null}
- -t 2.2309232 -s 0 -d 8 -p tcp -e 1040 -c 1 -i 17 -a 1 -x {0.0 5.0 10 ------- null}
h -t 2.2309232 -s 0 -d 8 -p tcp -e 1040 -c 1 -i 17 -a 1 -x {0.0 5.0 -1 ------- null}
+ -t 2.2383904 -s 0 -d 8 -p tcp -e 1040 -c 1 -i 18 -a 1 -x {0.0 5.0 11 ------- null}
- -t 2.2383904 -s 0 -d 8 -p tcp -e 1040 -c 1 -i 18 -a 1 -x {0.0 5.0 11 ------- null}
h -t 2.2383904 -s 0 -d 8 -p tcp -e 1040 -c 1 -i 18 -a 1 -x {0.0 5.0 -1 ------- null}
+ -t 2.2383904 -s 0 -d 8 -p tcp -e 1040 -c 1 -i 19 -a 1 -x {0.0 5.0 12 ------- null}
- -t 2.2392432 -s 0 -d 8 -p tcp -e 1040 -c 1 -i 19 -a 1 -x {0.0 5.0 12 ------- null}
h -t 2.2392432 -s 0 -d 8 -p tcp -e 1040 -c 1 -i 19 -a 1 -x {0.0 5.0 -1 ------- null}
+ -t 2.2467104 -s 0 -d 8 -p tcp -e 1040 -c 1 -i 20 -a 1 -x {0.0 5.0 13 ------- null}
- -t 2.2467104 -s 0 -d 8 -p tcp -e 1040 -c 1 -i 20 -a 1 -x {0.0 5.0 13 ------- null}
h -t 2.2467104 -s 0 -d 8 -p tcp -e 1040 -c 1 -i 20 -a 1 -x {0.0 5.0 -1 ------- null}
+ -t 2.2467104 -s 0 -d 8 -p tcp -e 1040 -c 1 -i 21 -a 1 -x {0.0 5.0 14 ------- null}
- -t 2.2475632 -s 0 -d 8 -p tcp -e 1040 -c 1 -i 21 -a 1 -x {0.0 5.0 14 ------- null}
h -t 2.2475632 -s 0 -d 8 -p tcp -e 1040 -c 1 -i 21 -a 1 -x {0.0 5.0 -1 ------- null}
r -t 2.3225976 -s 8 -d 2 -p tcp -e 1040 -c 1 -i 14 -a 1 -x {0.0 5.0 7 ------- null}
+ -t 2.3225976 -s 2 -d 4 -p tcp -e 1040 -c 1 -i 14 -a 1 -x {0.0 5.0 7 ------- null}
- -t 2.3225976 -s 2 -d 4 -p tcp -e 1040 -c 1 -i 14 -a 1 -x {0.0 5.0 7 ------- null}
h -t 2.3225976 -s 2 -d 4 -p tcp -e 1040 -c 1 -i 14 -a 1 -x {0.0 5.0 -1 ------- null}
r -t 2.3234504 -s 8 -d 2 -p tcp -e 1040 -c 1 -i 15 -a 1 -x {0.0 5.0 8 ------- null}
+ -t 2.3234504 -s 2 -d 4 -p tcp -e 1040 -c 1 -i 15 -a 1 -x {0.0 5.0 8 ------- null}
- -t 2.3309176 -s 2 -d 4 -p tcp -e 1040 -c 1 -i 15 -a 1 -x {0.0 5.0 8 ------- null}
h -t 2.3309176 -s 2 -d 4 -p tcp -e 1040 -c 1 -i 15 -a 1 -x {0.0 5.0 -1 ------- null}
r -t 2.3309176 -s 8 -d 2 -p tcp -e 1040 -c 1 -i 16 -a 1 -x {0.0 5.0 9 ------- null}
+ -t 2.3309176 -s 2 -d 4 -p tcp -e 1040 -c 1 -i 16 -a 1 -x {0.0 5.0 9 ------- null}
r -t 2.3317704 -s 8 -d 2 -p tcp -e 1040 -c 1 -i 17 -a 1 -x {0.0 5.0 10 ------- null}
+ -t 2.3317704 -s 2 -d 4 -p tcp -e 1040 -c 1 -i 17 -a 1 -x {0.0 5.0 10 ------- null}
- -t 2.3392376 -s 2 -d 4 -p tcp -e 1040 -c 1 -i 16 -a 1 -x {0.0 5.0 9 ------- null}
h -t 2.3392376 -s 2 -d 4 -p tcp -e 1040 -c 1 -i 16 -a 1 -x {0.0 5.0 -1 ------- null}
r -t 2.3392376 -s 8 -d 2 -p tcp -e 1040 -c 1 -i 18 -a 1 -x {0.0 5.0 11 ------- null}
+ -t 2.3392376 -s 2 -d 4 -p tcp -e 1040 -c 1 -i 18 -a 1 -x {0.0 5.0 11 ------- null}
r -t 2.3400904 -s 8 -d 2 -p tcp -e 1040 -c 1 -i 19 -a 1 -x {0.0 5.0 12 ------- null}
+ -t 2.3400904 -s 2 -d 4 -p tcp -e 1040 -c 1 -i 19 -a 1 -x {0.0 5.0 12 ------- null}
- -t 2.3475576 -s 2 -d 4 -p tcp -e 1040 -c 1 -i 17 -a 1 -x {0.0 5.0 10 ------- null}
h -t 2.3475576 -s 2 -d 4 -p tcp -e 1040 -c 1 -i 17 -a 1 -x {0.0 5.0 -1 ------- null}
r -t 2.3475576 -s 8 -d 2 -p tcp -e 1040 -c 1 -i 20 -a 1 -x {0.0 5.0 13 ------- null}
+ -t 2.3475576 -s 2 -d 4 -p tcp -e 1040 -c 1 -i 20 -a 1 -x {0.0 5.0 13 ------- null}
r -t 2.3484104 -s 8 -d 2 -p tcp -e 1040 -c 1 -i 21 -a 1 -x {0.0 5.0 14 ------- null}
+ -t 2.3484104 -s 2 -d 4 -p tcp -e 1040 -c 1 -i 21 -a 1 -x {0.0 5.0 14 ------- null}
- -t 2.3558776 -s 2 -d 4 -p tcp -e 1040 -c 1 -i 18 -a 1 -x {0.0 5.0 11 ------- null}
h -t 2.3558776 -s 2 -d 4 -p tcp -e 1040 -c 1 -i 18 -a 1 -x {0.0 5.0 -1 ------- null}
- -t 2.3641976 -s 2 -d 4 -p tcp -e 1040 -c 1 -i 19 -a 1 -x {0.0 5.0 12 ------- null}
h -t 2.3641976 -s 2 -d 4 -p tcp -e 1040 -c 1 -i 19 -a 1 -x {0.0 5.0 -1 ------- null}
- -t 2.3725176 -s 2 -d 4 -p tcp -e 1040 -c 1 -i 20 -a 1 -x {0.0 5.0 13 ------- null}
h -t 2.3725176 -s 2 -d 4 -p tcp -e 1040 -c 1 -i 20 -a 1 -x {0.0 5.0 -1 ------- null}
- -t 2.3808376 -s 2 -d 4 -p tcp -e 1040 -c 1 -i 21 -a 1 -x {0.0 5.0 14 ------- null}
h -t 2.3808376 -s 2 -d 4 -p tcp -e 1040 -c 1 -i 21 -a 1 -x {0.0 5.0 -1 ------- null}
r -t 2.3809176 -s 2 -d 4 -p tcp -e 1040 -c 1 -i 14 -a 1 -x {0.0 5.0 7 ------- null}
h -t 2.3809176 -s 4 -d 9 -p tcp -e 1040 -c 1 -i 14 -a 1 -x {0.0 5.0 7 ------- null}
r -t 2.3892376 -s 2 -d 4 -p tcp -e 1040 -c 1 -i 15 -a 1 -x {0.0 5.0 8 ------- null}
h -t 2.3892376 -s 4 -d 9 -p tcp -e 1040 -c 1 -i 15 -a 1 -x {0.0 5.0 8 ------- null}
r -t 2.3975576 -s 2 -d 4 -p tcp -e 1040 -c 1 -i 16 -a 1 -x {0.0 5.0 9 ------- null}
h -t 2.3975576 -s 4 -d 9 -p tcp -e 1040 -c 1 -i 16 -a 1 -x {0.0 5.0 9 ------- null}
r -t 2.4058776 -s 2 -d 4 -p tcp -e 1040 -c 1 -i 17 -a 1 -x {0.0 5.0 10 ------- null}
h -t 2.4058776 -s 4 -d 9 -p tcp -e 1040 -c 1 -i 17 -a 1 -x {0.0 5.0 10 ------- null}
r -t 2.4141976 -s 2 -d 4 -p tcp -e 1040 -c 1 -i 18 -a 1 -x {0.0 5.0 11 ------- null}
h -t 2.4141976 -s 4 -d 9 -p tcp -e 1040 -c 1 -i 18 -a 1 -x {0.0 5.0 11 ------- null}
r -t 2.4225176 -s 2 -d 4 -p tcp -e 1040 -c 1 -i 19 -a 1 -x {0.0 5.0 12 ------- null}
h -t 2.4225176 -s 4 -d 9 -p tcp -e 1040 -c 1 -i 19 -a 1 -x {0.0 5.0 12 ------- null}
r -t 2.4308376 -s 2 -d 4 -p tcp -e 1040 -c 1 -i 20 -a 1 -x {0.0 5.0 13 ------- null}
h -t 2.4308376 -s 4 -d 9 -p tcp -e 1040 -c 1 -i 20 -a 1 -x {0.0 5.0 13 ------- null}
+ -t 2.4309176 -s 4 -d 9 -p tcp -e 1040 -c 1 -i 14 -a 1 -x {0.0 5.0 7 ------- null}
- -t 2.4309176 -s 4 -d 9 -p tcp -e 1040 -c 1 -i 14 -a 1 -x {0.0 5.0 7 ------- null}
h -t 2.4309176 -s 4 -d 9 -p tcp -e 1040 -c 1 -i 14 -a 1 -x {0.0 5.0 -1 ------- null}
r -t 2.4391576 -s 2 -d 4 -p tcp -e 1040 -c 1 -i 21 -a 1 -x {0.0 5.0 14 ------- null}
h -t 2.4391576 -s 4 -d 9 -p tcp -e 1040 -c 1 -i 21 -a 1 -x {0.0 5.0 14 ------- null}
+ -t 2.4392376 -s 4 -d 9 -p tcp -e 1040 -c 1 -i 15 -a 1 -x {0.0 5.0 8 ------- null}
- -t 2.4392376 -s 4 -d 9 -p tcp -e 1040 -c 1 -i 15 -a 1 -x {0.0 5.0 8 ------- null}
h -t 2.4392376 -s 4 -d 9 -p tcp -e 1040 -c 1 -i 15 -a 1 -x {0.0 5.0 -1 ------- null}
+ -t 2.4475576 -s 4 -d 9 -p tcp -e 1040 -c 1 -i 16 -a 1 -x {0.0 5.0 9 ------- null}
- -t 2.4475576 -s 4 -d 9 -p tcp -e 1040 -c 1 -i 16 -a 1 -x {0.0 5.0 9 ------- null}
h -t 2.4475576 -s 4 -d 9 -p tcp -e 1040 -c 1 -i 16 -a 1 -x {0.0 5.0 -1 ------- null}
+ -t 2.4558776 -s 4 -d 9 -p tcp -e 1040 -c 1 -i 17 -a 1 -x {0.0 5.0 10 ------- null}
- -t 2.4558776 -s 4 -d 9 -p tcp -e 1040 -c 1 -i 17 -a 1 -x {0.0 5.0 10 ------- null}
h -t 2.4558776 -s 4 -d 9 -p tcp -e 1040 -c 1 -i 17 -a 1 -x {0.0 5.0 -1 ------- null}
+ -t 2.4641976 -s 4 -d 9 -p tcp -e 1040 -c 1 -i 18 -a 1 -x {0.0 5.0 11 ------- null}
- -t 2.4641976 -s 4 -d 9 -p tcp -e 1040 -c 1 -i 18 -a 1 -x {0.0 5.0 11 ------- null}
h -t 2.4641976 -s 4 -d 9 -p tcp -e 1040 -c 1 -i 18 -a 1 -x {0.0 5.0 -1 ------- null}
+ -t 2.4725176 -s 4 -d 9 -p tcp -e 1040 -c 1 -i 19 -a 1 -x {0.0 5.0 12 ------- null}
- -t 2.4725176 -s 4 -d 9 -p tcp -e 1040 -c 1 -i 19 -a 1 -x {0.0 5.0 12 ------- null}
h -t 2.4725176 -s 4 -d 9 -p tcp -e 1040 -c 1 -i 19 -a 1 -x {0.0 5.0 -1 ------- null}
+ -t 2.4808376 -s 4 -d 9 -p tcp -e 1040 -c 1 -i 20 -a 1 -x {0.0 5.0 13 ------- null}
- -t 2.4808376 -s 4 -d 9 -p tcp -e 1040 -c 1 -i 20 -a 1 -x {0.0 5.0 13 ------- null}
h -t 2.4808376 -s 4 -d 9 -p tcp -e 1040 -c 1 -i 20 -a 1 -x {0.0 5.0 -1 ------- null}
r -t 2.4817648 -s 9 -d 5 -p tcp -e 1040 -c 1 -i 14 -a 1 -x {0.0 5.0 7 ------- null}
h -t 2.4817648 -s 5 -d 9 -p ack -e 40 -c 1 -i 22 -a 1 -x {5.0 0.0 7 ------- null}
+ -t 2.4891576 -s 4 -d 9 -p tcp -e 1040 -c 1 -i 21 -a 1 -x {0.0 5.0 14 ------- null}
- -t 2.4891576 -s 4 -d 9 -p tcp -e 1040 -c 1 -i 21 -a 1 -x {0.0 5.0 14 ------- null}
h -t 2.4891576 -s 4 -d 9 -p tcp -e 1040 -c 1 -i 21 -a 1 -x {0.0 5.0 -1 ------- null}
r -t 2.4900848 -s 9 -d 5 -p tcp -e 1040 -c 1 -i 15 -a 1 -x {0.0 5.0 8 ------- null}
h -t 2.4900848 -s 5 -d 9 -p ack -e 40 -c 1 -i 23 -a 1 -x {5.0 0.0 8 ------- null}
r -t 2.4984048 -s 9 -d 5 -p tcp -e 1040 -c 1 -i 16 -a 1 -x {0.0 5.0 9 ------- null}
h -t 2.4984048 -s 5 -d 9 -p ack -e 40 -c 1 -i 24 -a 1 -x {5.0 0.0 9 ------- null}
r -t 2.5067248 -s 9 -d 5 -p tcp -e 1040 -c 1 -i 17 -a 1 -x {0.0 5.0 10 ------- null}
h -t 2.5067248 -s 5 -d 9 -p ack -e 40 -c 1 -i 25 -a 1 -x {5.0 0.0 10 ------- null}
r -t 2.5150448 -s 9 -d 5 -p tcp -e 1040 -c 1 -i 18 -a 1 -x {0.0 5.0 11 ------- null}
h -t 2.5150448 -s 5 -d 9 -p ack -e 40 -c 1 -i 26 -a 1 -x {5.0 0.0 11 ------- null}
r -t 2.5233648 -s 9 -d 5 -p tcp -e 1040 -c 1 -i 19 -a 1 -x {0.0 5.0 12 ------- null}
h -t 2.5233648 -s 5 -d 9 -p ack -e 40 -c 1 -i 27 -a 1 -x {5.0 0.0 12 ------- null}
r -t 2.5316848 -s 9 -d 5 -p tcp -e 1040 -c 1 -i 20 -a 1 -x {0.0 5.0 13 ------- null}
h -t 2.5316848 -s 5 -d 9 -p ack -e 40 -c 1 -i 28 -a 1 -x {5.0 0.0 13 ------- null}
+ -t 2.5317648 -s 5 -d 9 -p ack -e 40 -c 1 -i 22 -a 1 -x {5.0 0.0 7 ------- null}
- -t 2.5317648 -s 5 -d 9 -p ack -e 40 -c 1 -i 22 -a 1 -x {5.0 0.0 7 ------- null}
h -t 2.5317648 -s 5 -d 9 -p ack -e 40 -c 1 -i 22 -a 1 -x {5.0 0.0 -1 ------- null}
r -t 2.5400048 -s 9 -d 5 -p tcp -e 1040 -c 1 -i 21 -a 1 -x {0.0 5.0 14 ------- null}
h -t 2.5400048 -s 5 -d 9 -p ack -e 40 -c 1 -i 29 -a 1 -x {5.0 0.0 14 ------- null}
+ -t 2.5400848 -s 5 -d 9 -p ack -e 40 -c 1 -i 23 -a 1 -x {5.0 0.0 8 ------- null}
- -t 2.5400848 -s 5 -d 9 -p ack -e 40 -c 1 -i 23 -a 1 -x {5.0 0.0 8 ------- null}
h -t 2.5400848 -s 5 -d 9 -p ack -e 40 -c 1 -i 23 -a 1 -x {5.0 0.0 -1 ------- null}
+ -t 2.5484048 -s 5 -d 9 -p ack -e 40 -c 1 -i 24 -a 1 -x {5.0 0.0 9 ------- null}
- -t 2.5484048 -s 5 -d 9 -p ack -e 40 -c 1 -i 24 -a 1 -x {5.0 0.0 9 ------- null}
h -t 2.5484048 -s 5 -d 9 -p ack -e 40 -c 1 -i 24 -a 1 -x {5.0 0.0 -1 ------- null}
+ -t 2.5567248 -s 5 -d 9 -p ack -e 40 -c 1 -i 25 -a 1 -x {5.0 0.0 10 ------- null}
- -t 2.5567248 -s 5 -d 9 -p ack -e 40 -c 1 -i 25 -a 1 -x {5.0 0.0 10 ------- null}
h -t 2.5567248 -s 5 -d 9 -p ack -e 40 -c 1 -i 25 -a 1 -x {5.0 0.0 -1 ------- null}
+ -t 2.5650448 -s 5 -d 9 -p ack -e 40 -c 1 -i 26 -a 1 -x {5.0 0.0 11 ------- null}
- -t 2.5650448 -s 5 -d 9 -p ack -e 40 -c 1 -i 26 -a 1 -x {5.0 0.0 11 ------- null}
h -t 2.5650448 -s 5 -d 9 -p ack -e 40 -c 1 -i 26 -a 1 -x {5.0 0.0 -1 ------- null}
+ -t 2.5733648 -s 5 -d 9 -p ack -e 40 -c 1 -i 27 -a 1 -x {5.0 0.0 12 ------- null}
- -t 2.5733648 -s 5 -d 9 -p ack -e 40 -c 1 -i 27 -a 1 -x {5.0 0.0 12 ------- null}
h -t 2.5733648 -s 5 -d 9 -p ack -e 40 -c 1 -i 27 -a 1 -x {5.0 0.0 -1 ------- null}
+ -t 2.5816848 -s 5 -d 9 -p ack -e 40 -c 1 -i 28 -a 1 -x {5.0 0.0 13 ------- null}
- -t 2.5816848 -s 5 -d 9 -p ack -e 40 -c 1 -i 28 -a 1 -x {5.0 0.0 13 ------- null}
h -t 2.5816848 -s 5 -d 9 -p ack -e 40 -c 1 -i 28 -a 1 -x {5.0 0.0 -1 ------- null}
r -t 2.58182 -s 9 -d 4 -p ack -e 40 -c 1 -i 22 -a 1 -x {5.0 0.0 7 ------- null}
+ -t 2.58182 -s 4 -d 2 -p ack -e 40 -c 1 -i 22 -a 1 -x {5.0 0.0 7 ------- null}
- -t 2.58182 -s 4 -d 2 -p ack -e 40 -c 1 -i 22 -a 1 -x {5.0 0.0 7 ------- null}
h -t 2.58182 -s 4 -d 2 -p ack -e 40 -c 1 -i 22 -a 1 -x {5.0 0.0 -1 ------- null}
+ -t 2.5900048 -s 5 -d 9 -p ack -e 40 -c 1 -i 29 -a 1 -x {5.0 0.0 14 ------- null}
- -t 2.5900048 -s 5 -d 9 -p ack -e 40 -c 1 -i 29 -a 1 -x {5.0 0.0 14 ------- null}
h -t 2.5900048 -s 5 -d 9 -p ack -e 40 -c 1 -i 29 -a 1 -x {5.0 0.0 -1 ------- null}
r -t 2.59014 -s 9 -d 4 -p ack -e 40 -c 1 -i 23 -a 1 -x {5.0 0.0 8 ------- null}
+ -t 2.59014 -s 4 -d 2 -p ack -e 40 -c 1 -i 23 -a 1 -x {5.0 0.0 8 ------- null}
- -t 2.59014 -s 4 -d 2 -p ack -e 40 -c 1 -i 23 -a 1 -x {5.0 0.0 8 ------- null}
h -t 2.59014 -s 4 -d 2 -p ack -e 40 -c 1 -i 23 -a 1 -x {5.0 0.0 -1 ------- null}
r -t 2.59846 -s 9 -d 4 -p ack -e 40 -c 1 -i 24 -a 1 -x {5.0 0.0 9 ------- null}
+ -t 2.59846 -s 4 -d 2 -p ack -e 40 -c 1 -i 24 -a 1 -x {5.0 0.0 9 ------- null}
- -t 2.59846 -s 4 -d 2 -p ack -e 40 -c 1 -i 24 -a 1 -x {5.0 0.0 9 ------- null}