h 0 0 8 tcp 40 ------- 1 0.0 5.0 0 0
+ 0.1 0 8 tcp 40 ------- 1 0.0 5.0 0 0
- 0.1 0 8 tcp 40 ------- 1 0.0 5.0 0 0
r 0.200055 8 2 tcp 40 ------- 1 0.0 5.0 0 0
+ 0.200055 2 4 tcp 40 ------- 1 0.0 5.0 0 0
- 0.200055 2 4 tcp 40 ------- 1 0.0 5.0 0 0
r 0.250375 2 4 tcp 40 ------- 1 0.0 5.0 0 0
h 0.250375 4 9 tcp 40 ------- 1 0.0 5.0 0 0
+ 0.300375 4 9 tcp 40 ------- 1 0.0 5.0 0 0
- 0.300375 4 9 tcp 40 ------- 1 0.0 5.0 0 0
r 0.35043 9 5 tcp 40 ------- 1 0.0 5.0 0 0
h 0.35043 5 9 ack 40 ------- 1 5.0 0.0 0 1
+ 0.40043 5 9 ack 40 ------- 1 5.0 0.0 0 1
- 0.40043 5 9 ack 40 ------- 1 5.0 0.0 0 1
r 0.450486 9 4 ack 40 ------- 1 5.0 0.0 0 1
+ 0.450486 4 2 ack 40 ------- 1 5.0 0.0 0 1
- 0.450486 4 2 ack 40 ------- 1 5.0 0.0 0 1
r 0.500806 4 2 ack 40 ------- 1 5.0 0.0 0 1
h 0.500806 2 8 ack 40 ------- 1 5.0 0.0 0 1
+ 0.600806 2 8 ack 40 ------- 1 5.0 0.0 0 1
- 0.600806 2 8 ack 40 ------- 1 5.0 0.0 0 1
r 0.700861 8 0 ack 40 ------- 1 5.0 0.0 0 1
h 0.700861 0 8 tcp 1040 ------- 1 0.0 5.0 1 2
h 0.700861 0 8 tcp 1040 ------- 1 0.0 5.0 2 3
+ 0.800861 0 8 tcp 1040 ------- 1 0.0 5.0 1 2
- 0.800861 0 8 tcp 1040 ------- 1 0.0 5.0 1 2
+ 0.800861 0 8 tcp 1040 ------- 1 0.0 5.0 2 3
- 0.801714 0 8 tcp 1040 ------- 1 0.0 5.0 2 3
r 0.901708 8 2 tcp 1040 ------- 1 0.0 5.0 1 2
+ 0.901708 2 4 tcp 1040 ------- 1 0.0 5.0 1 2
- 0.901708 2 4 tcp 1040 ------- 1 0.0 5.0 1 2
r 0.902561 8 2 tcp 1040 ------- 1 0.0 5.0 2 3
+ 0.902561 2 4 tcp 1040 ------- 1 0.0 5.0 2 3
- 0.910028 2 4 tcp 1040 ------- 1 0.0 5.0 2 3
r 0.960028 2 4 tcp 1040 ------- 1 0.0 5.0 1 2
h 0.960028 4 9 tcp 1040 ------- 1 0.0 5.0 1 2
r 0.968348 2 4 tcp 1040 ------- 1 0.0 5.0 2 3
h 0.968348 4 9 tcp 1040 ------- 1 0.0 5.0 2 3
+ 1.010028 4 9 tcp 1040 ------- 1 0.0 5.0 1 2
- 1.010028 4 9 tcp 1040 ------- 1 0.0 5.0 1 2
+ 1.018348 4 9 tcp 1040 ------- 1 0.0 5.0 2 3
- 1.018348 4 9 tcp 1040 ------- 1 0.0 5.0 2 3
r 1.060875 9 5 tcp 1040 ------- 1 0.0 5.0 1 2
h 1.060875 5 9 ack 40 ------- 1 5.0 0.0 1 4
r 1.069195 9 5 tcp 1040 ------- 1 0.0 5.0 2 3
h 1.069195 5 9 ack 40 ------- 1 5.0 0.0 2 5
+ 1.110875 5 9 ack 40 ------- 1 5.0 0.0 1 4
- 1.110875 5 9 ack 40 ------- 1 5.0 0.0 1 4
+ 1.119195 5 9 ack 40 ------- 1 5.0 0.0 2 5
- 1.119195 5 9 ack 40 ------- 1 5.0 0.0 2 5
r 1.16093 9 4 ack 40 ------- 1 5.0 0.0 1 4
+ 1.16093 4 2 ack 40 ------- 1 5.0 0.0 1 4
- 1.16093 4 2 ack 40 ------- 1 5.0 0.0 1 4
r 1.16925 9 4 ack 40 ------- 1 5.0 0.0 2 5
+ 1.16925 4 2 ack 40 ------- 1 5.0 0.0 2 5
- 1.16925 4 2 ack 40 ------- 1 5.0 0.0 2 5
r 1.21125 4 2 ack 40 ------- 1 5.0 0.0 1 4
h 1.21125 2 8 ack 40 ------- 1 5.0 0.0 1 4
r 1.21957 4 2 ack 40 ------- 1 5.0 0.0 2 5
h 1.21957 2 8 ack 40 ------- 1 5.0 0.0 2 5
+ 1.31125 2 8 ack 40 ------- 1 5.0 0.0 1 4
- 1.31125 2 8 ack 40 ------- 1 5.0 0.0 1 4
+ 1.31957 2 8 ack 40 ------- 1 5.0 0.0 2 5
- 1.31957 2 8 ack 40 ------- 1 5.0 0.0 2 5
r 1.411306 8 0 ack 40 ------- 1 5.0 0.0 1 4
h 1.411306 0 8 tcp 1040 ------- 1 0.0 5.0 3 6
h 1.411306 0 8 tcp 1040 ------- 1 0.0 5.0 4 7
r 1.419626 8 0 ack 40 ------- 1 5.0 0.0 2 5
h 1.419626 0 8 tcp 1040 ------- 1 0.0 5.0 5 8
h 1.419626 0 8 tcp 1040 ------- 1 0.0 5.0 6 9
+ 1.511306 0 8 tcp 1040 ------- 1 0.0 5.0 3 6
- 1.511306 0 8 tcp 1040 ------- 1 0.0 5.0 3 6
+ 1.511306 0 8 tcp 1040 ------- 1 0.0 5.0 4 7
- 1.512158 0 8 tcp 1040 ------- 1 0.0 5.0 4 7
+ 1.519626 0 8 tcp 1040 ------- 1 0.0 5.0 5 8
- 1.519626 0 8 tcp 1040 ------- 1 0.0 5.0 5 8
+ 1.519626 0 8 tcp 1040 ------- 1 0.0 5.0 6 9
- 1.520478 0 8 tcp 1040 ------- 1 0.0 5.0 6 9
r 1.612153 8 2 tcp 1040 ------- 1 0.0 5.0 3 6
+ 1.612153 2 4 tcp 1040 ------- 1 0.0 5.0 3 6
- 1.612153 2 4 tcp 1040 ------- 1 0.0 5.0 3 6
r 1.613006 8 2 tcp 1040 ------- 1 0.0 5.0 4 7
+ 1.613006 2 4 tcp 1040 ------- 1 0.0 5.0 4 7
r 1.620473 8 2 tcp 1040 ------- 1 0.0 5.0 5 8
+ 1.620473 2 4 tcp 1040 ------- 1 0.0 5.0 5 8
- 1.620473 2 4 tcp 1040 ------- 1 0.0 5.0 4 7
r 1.621326 8 2 tcp 1040 ------- 1 0.0 5.0 6 9
+ 1.621326 2 4 tcp 1040 ------- 1 0.0 5.0 6 9
- 1.628793 2 4 tcp 1040 ------- 1 0.0 5.0 5 8
- 1.637113 2 4 tcp 1040 ------- 1 0.0 5.0 6 9
r 1.670473 2 4 tcp 1040 ------- 1 0.0 5.0 3 6
h 1.670473 4 9 tcp 1040 ------- 1 0.0 5.0 3 6
r 1.678793 2 4 tcp 1040 ------- 1 0.0 5.0 4 7
h 1.678793 4 9 tcp 1040 ------- 1 0.0 5.0 4 7
r 1.687113 2 4 tcp 1040 ------- 1 0.0 5.0 5 8
h 1.687113 4 9 tcp 1040 ------- 1 0.0 5.0 5 8
r 1.695433 2 4 tcp 1040 ------- 1 0.0 5.0 6 9
h 1.695433 4 9 tcp 1040 ------- 1 0.0 5.0 6 9
+ 1.720473 4 9 tcp 1040 ------- 1 0.0 5.0 3 6
- 1.720473 4 9 tcp 1040 ------- 1 0.0 5.0 3 6
+ 1.728793 4 9 tcp 1040 ------- 1 0.0 5.0 4 7
- 1.728793 4 9 tcp 1040 ------- 1 0.0 5.0 4 7
+ 1.737113 4 9 tcp 1040 ------- 1 0.0 5.0 5 8
- 1.737113 4 9 tcp 1040 ------- 1 0.0 5.0 5 8
+ 1.745433 4 9 tcp 1040 ------- 1 0.0 5.0 6 9
- 1.745433 4 9 tcp 1040 ------- 1 0.0 5.0 6 9
r 1.77132 9 5 tcp 1040 ------- 1 0.0 5.0 3 6
h 1.77132 5 9 ack 40 ------- 1 5.0 0.0 3 10
r 1.77964 9 5 tcp 1040 ------- 1 0.0 5.0 4 7
h 1.77964 5 9 ack 40 ------- 1 5.0 0.0 4 11
r 1.78796 9 5 tcp 1040 ------- 1 0.0 5.0 5 8
h 1.78796 5 9 ack 40 ------- 1 5.0 0.0 5 12
r 1.79628 9 5 tcp 1040 ------- 1 0.0 5.0 6 9
h 1.79628 5 9 ack 40 ------- 1 5.0 0.0 6 13
+ 1.82132 5 9 ack 40 ------- 1 5.0 0.0 3 10
- 1.82132 5 9 ack 40 ------- 1 5.0 0.0 3 10
+ 1.82964 5 9 ack 40 ------- 1 5.0 0.0 4 11
- 1.82964 5 9 ack 40 ------- 1 5.0 0.0 4 11
+ 1.83796 5 9 ack 40 ------- 1 5.0 0.0 5 12
- 1.83796 5 9 ack 40 ------- 1 5.0 0.0 5 12
+ 1.84628 5 9 ack 40 ------- 1 5.0 0.0 6 13
- 1.84628 5 9 ack 40 ------- 1 5.0 0.0 6 13
r 1.871375 9 4 ack 40 ------- 1 5.0 0.0 3 10
+ 1.871375 4 2 ack 40 ------- 1 5.0 0.0 3 10
- 1.871375 4 2 ack 40 ------- 1 5.0 0.0 3 10
r 1.879695 9 4 ack 40 ------- 1 5.0 0.0 4 11
+ 1.879695 4 2 ack 40 ------- 1 5.0 0.0 4 11
- 1.879695 4 2 ack 40 ------- 1 5.0 0.0 4 11
r 1.888015 9 4 ack 40 ------- 1 5.0 0.0 5 12
+ 1.888015 4 2 ack 40 ------- 1 5.0 0.0 5 12
- 1.888015 4 2 ack 40 ------- 1 5.0 0.0 5 12
r 1.896335 9 4 ack 40 ------- 1 5.0 0.0 6 13
+ 1.896335 4 2 ack 40 ------- 1 5.0 0.0 6 13
- 1.896335 4 2 ack 40 ------- 1 5.0 0.0 6 13
r 1.921695 4 2 ack 40 ------- 1 5.0 0.0 3 10
h 1.921695 2 8 ack 40 ------- 1 5.0 0.0 3 10
r 1.930015 4 2 ack 40 ------- 1 5.0 0.0 4 11
h 1.930015 2 8 ack 40 ------- 1 5.0 0.0 4 11
r 1.938335 4 2 ack 40 ------- 1 5.0 0.0 5 12
h 1.938335 2 8 ack 40 ------- 1 5.0 0.0 5 12
r 1.946655 4 2 ack 40 ------- 1 5.0 0.0 6 13
h 1.946655 2 8 ack 40 ------- 1 5.0 0.0 6 13
+ 2.021695 2 8 ack 40 ------- 1 5.0 0.0 3 10
- 2.021695 2 8 ack 40 ------- 1 5.0 0.0 3 10
+ 2.030015 2 8 ack 40 ------- 1 5.0 0.0 4 11
- 2.030015 2 8 ack 40 ------- 1 5.0 0.0 4 11
+ 2.038335 2 8 ack 40 ------- 1 5.0 0.0 5 12
- 2.038335 2 8 ack 40 ------- 1 5.0 0.0 5 12
+ 2.046655 2 8 ack 40 ------- 1 5.0 0.0 6 13
- 2.046655 2 8 ack 40 ------- 1 5.0 0.0 6 13
r 2.12175 8 0 ack 40 ------- 1 5.0 0.0 3 10
h 2.12175 0 8 tcp 1040 ------- 1 0.0 5.0 7 14
h 2.12175 0 8 tcp 1040 ------- 1 0.0 5.0 8 15
r 2.13007 8 0 ack 40 ------- 1 5.0 0.0 4 11
h 2.13007 0 8 tcp 1040 ------- 1 0.0 5.0 9 16
h 2.13007 0 8 tcp 1040 ------- 1 0.0 5.0 10 17
r 2.13839 8 0 ack 40 ------- 1 5.0 0.0 5 12
h 2.13839 0 8 tcp 1040 ------- 1 0.0 5.0 11 18
h 2.13839 0 8 tcp 1040 ------- 1 0.0 5.0 12 19
r 2.14671 8 0 ack 40 ------- 1 5.0 0.0 6 13
h 2.14671 0 8 tcp 1040 ------- 1 0.0 5.0 13 20
h 2.14671 0 8 tcp 1040 ------- 1 0.0 5.0 14 21
+ 2.22175 0 8 tcp 1040 ------- 1 0.0 5.0 7 14
- 2.22175 0 8 tcp 1040 ------- 1 0.0 5.0 7 14
+ 2.22175 0 8 tcp 1040 ------- 1 0.0 5.0 8 15
- 2.222603 0 8 tcp 1040 ------- 1 0.0 5.0 8 15
+ 2.23007 0 8 tcp 1040 ------- 1 0.0 5.0 9 16
- 2.23007 0 8 tcp 1040 ------- 1 0.0 5.0 9 16
+ 2.23007 0 8 tcp 1040 ------- 1 0.0 5.0 10 17
- 2.230923 0 8 tcp 1040 ------- 1 0.0 5.0 10 17
+ 2.23839 0 8 tcp 1040 ------- 1 0.0 5.0 11 18
- 2.23839 0 8 tcp 1040 ------- 1 0.0 5.0 11 18
+ 2.23839 0 8 tcp 1040 ------- 1 0.0 5.0 12 19
- 2.239243 0 8 tcp 1040 ------- 1 0.0 5.0 12 19
+ 2.24671 0 8 tcp 1040 ------- 1 0.0 5.0 13 20
- 2.24671 0 8 tcp 1040 ------- 1 0.0 5.0 13 20
+ 2.24671 0 8 tcp 1040 ------- 1 0.0 5.0 14 21
- 2.247563 0 8 tcp 1040 ------- 1 0.0 5.0 14 21
r 2.322598 8 2 tcp 1040 ------- 1 0.0 5.0 7 14
+ 2.322598 2 4 tcp 1040 ------- 1 0.0 5.0 7 14
- 2.322598 2 4 tcp 1040 ------- 1 0.0 5.0 7 14
r 2.32345 8 2 tcp 1040 ------- 1 0.0 5.0 8 15
+ 2.32345 2 4 tcp 1040 ------- 1 0.0 5.0 8 15
- 2.330918 2 4 tcp 1040 ------- 1 0.0 5.0 8 15
r 2.330918 8 2 tcp 1040 ------- 1 0.0 5.0 9 16
+ 2.330918 2 4 tcp 1040 ------- 1 0.0 5.0 9 16
r 2.33177 8 2 tcp 1040 ------- 1 0.0 5.0 10 17
+ 2.33177 2 4 tcp 1040 ------- 1 0.0 5.0 10 17
- 2.339238 2 4 tcp 1040 ------- 1 0.0 5.0 9 16
r 2.339238 8 2 tcp 1040 ------- 1 0.0 5.0 11 18
+ 2.339238 2 4 tcp 1040 ------- 1 0.0 5.0 11 18
r 2.34009 8 2 tcp 1040 ------- 1 0.0 5.0 12 19
+ 2.34009 2 4 tcp 1040 ------- 1 0.0 5.0 12 19
- 2.347558 2 4 tcp 1040 ------- 1 0.0 5.0 10 17
r 2.347558 8 2 tcp 1040 ------- 1 0.0 5.0 13 20
+ 2.347558 2 4 tcp 1040 ------- 1 0.0 5.0 13 20
r 2.34841 8 2 tcp 1040 ------- 1 0.0 5.0 14 21
+ 2.34841 2 4 tcp 1040 ------- 1 0.0 5.0 14 21
- 2.355878 2 4 tcp 1040 ------- 1 0.0 5.0 11 18
- 2.364198 2 4 tcp 1040 ------- 1 0.0 5.0 12 19
- 2.372518 2 4 tcp 1040 ------- 1 0.0 5.0 13 20
- 2.380838 2 4 tcp 1040 ------- 1 0.0 5.0 14 21
r 2.380918 2 4 tcp 1040 ------- 1 0.0 5.0 7 14
h 2.380918 4 9 tcp 1040 ------- 1 0.0 5.0 7 14
r 2.389238 2 4 tcp 1040 ------- 1 0.0 5.0 8 15
h 2.389238 4 9 tcp 1040 ------- 1 0.0 5.0 8 15
r 2.397558 2 4 tcp 1040 ------- 1 0.0 5.0 9 16
h 2.397558 4 9 tcp 1040 ------- 1 0.0 5.0 9 16
r 2.405878 2 4 tcp 1040 ------- 1 0.0 5.0 10 17
h 2.405878 4 9 tcp 1040 ------- 1 0.0 5.0 10 17
r 2.414198 2 4 tcp 1040 ------- 1 0.0 5.0 11 18
h 2.414198 4 9 tcp 1040 ------- 1 0.0 5.0 11 18
r 2.422518 2 4 tcp 1040 ------- 1 0.0 5.0 12 19
h 2.422518 4 9 tcp 1040 ------- 1 0.0 5.0 12 19
r 2.430838 2 4 tcp 1040 ------- 1 0.0 5.0 13 20
h 2.430838 4 9 tcp 1040 ------- 1 0.0 5.0 13 20
+ 2.430918 4 9 tcp 1040 ------- 1 0.0 5.0 7 14
- 2.430918 4 9 tcp 1040 ------- 1 0.0 5.0 7 14
r 2.439158 2 4 tcp 1040 ------- 1 0.0 5.0 14 21
h 2.439158 4 9 tcp 1040 ------- 1 0.0 5.0 14 21
+ 2.439238 4 9 tcp 1040 ------- 1 0.0 5.0 8 15
- 2.439238 4 9 tcp 1040 ------- 1 0.0 5.0 8 15
+ 2.447558 4 9 tcp 1040 ------- 1 0.0 5.0 9 16
- 2.447558 4 9 tcp 1040 ------- 1 0.0 5.0 9 16
+ 2.455878 4 9 tcp 1040 ------- 1 0.0 5.0 10 17
- 2.455878 4 9 tcp 1040 ------- 1 0.0 5.0 10 17
+ 2.464198 4 9 tcp 1040 ------- 1 0.0 5.0 11 18
- 2.464198 4 9 tcp 1040 ------- 1 0.0 5.0 11 18
+ 2.472518 4 9 tcp 1040 ------- 1 0.0 5.0 12 19
- 2.472518 4 9 tcp 1040 ------- 1 0.0 5.0 12 19
+ 2.480838 4 9 tcp 1040 ------- 1 0.0 5.0 13 20
- 2.480838 4 9 tcp 1040 ------- 1 0.0 5.0 13 20
r 2.481765 9 5 tcp 1040 ------- 1 0.0 5.0 7 14
h 2.481765 5 9 ack 40 ------- 1 5.0 0.0 7 22
+ 2.489158 4 9 tcp 1040 ------- 1 0.0 5.0 14 21
- 2.489158 4 9 tcp 1040 ------- 1 0.0 5.0 14 21
r 2.490085 9 5 tcp 1040 ------- 1 0.0 5.0 8 15
h 2.490085 5 9 ack 40 ------- 1 5.0 0.0 8 23
r 2.498405 9 5 tcp 1040 ------- 1 0.0 5.0 9 16
h 2.498405 5 9 ack 40 ------- 1 5.0 0.0 9 24
r 2.506725 9 5 tcp 1040 ------- 1 0.0 5.0 10 17
h 2.506725 5 9 ack 40 ------- 1 5.0 0.0 10 25
r 2.515045 9 5 tcp 1040 ------- 1 0.0 5.0 11 18
h 2.515045 5 9 ack 40 ------- 1 5.0 0.0 11 26
r 2.523365 9 5 tcp 1040 ------- 1 0.0 5.0 12 19
h 2.523365 5 9 ack 40 ------- 1 5.0 0.0 12 27
r 2.531685 9 5 tcp 1040 ------- 1 0.0 5.0 13 20
h 2.531685 5 9 ack 40 ------- 1 5.0 0.0 13 28
+ 2.531765 5 9 ack 40 ------- 1 5.0 0.0 7 22
- 2.531765 5 9 ack 40 ------- 1 5.0 0.0 7 22
r 2.540005 9 5 tcp 1040 ------- 1 0.0 5.0 14 21
h 2.540005 5 9 ack 40 ------- 1 5.0 0.0 14 29
+ 2.540085 5 9 ack 40 ------- 1 5.0 0.0 8 23
- 2.540085 5 9 ack 40 ------- 1 5.0 0.0 8 23
+ 2.548405 5 9 ack 40 ------- 1 5.0 0.0 9 24
- 2.548405 5 9 ack 40 ------- 1 5.0 0.0 9 24
+ 2.556725 5 9 ack 40 ------- 1 5.0 0.0 10 25
- 2.556725 5 9 ack 40 ------- 1 5.0 0.0 10 25
+ 2.565045 5 9 ack 40 ------- 1 5.0 0.0 11 26
- 2.565045 5 9 ack 40 ------- 1 5.0 0.0 11 26
+ 2.573365 5 9 ack 40 ------- 1 5.0 0.0 12 27
- 2.573365 5 9 ack 40 ------- 1 5.0 0.0 12 27
+ 2.581685 5 9 ack 40 ------- 1 5.0 0.0 13 28
- 2.581685 5 9 ack 40 ------- 1 5.0 0.0 13 28
r 2.58182 9 4 ack 40 ------- 1 5.0 0.0 7 22
+ 2.58182 4 2 ack 40 ------- 1 5.0 0.0 7 22
- 2.58182 4 2 ack 40 ------- 1 5.0 0.0 7 22
+ 2.590005 5 9 ack 40 ------- 1 5.0 0.0 14 29
- 2.590005 5 9 ack 40 ------- 1 5.0 0.0 14 29
r 2.59014 9 4 ack 40 ------- 1 5.0 0.0 8 23
+ 2.59014 4 2 ack 40 ------- 1 5.0 0.0 8 23
- 2.59014 4 2 ack 40 ------- 1 5.0 0.0 8 23
r 2.59846 9 4 ack 40 ------- 1 5.0 0.0 9 24
+ 2.59846 4 2 ack 40 ------- 1 5.0 0.0 9 24
- 2.59846 4 2 ack 40 ------- 1 5.0 0.0 9 24
r 2.60678 9 4 ack 40 ------- 1 5.0 0.0 10 25
+ 2.60678 4 2 ack 40 ------- 1 5.0 0.0 10 25
- 2.60678 4 2 ack 40 ------- 1 5.0 0.0 10 25
r 2.6151 9 4 ack 40 ------- 1 5.0 0.0 11 26
+ 2.6151 4 2 ack 40 ------- 1 5.0 0.0 11 26
- 2.6151 4 2 ack 40 ------- 1 5.0 0.0 11 26
r 2.62342 9 4 ack 40 ------- 1 5.0 0.0 12 27
+ 2.62342 4 2 ack 40 ------- 1 5.0 0.0 12 27
- 2.62342 4 2 ack 40 ------- 1 5.0 0.0 12 27
r 2.63174 9 4 ack 40 ------- 1 5.0 0.0 13 28
+ 2.63174 4 2 ack 40 ------- 1 5.0 0.0 13 28
- 2.63174 4 2 ack 40 ------- 1 5.0 0.0 13 28
r 2.63214 4 2 ack 40 ------- 1 5.0 0.0 7 22
h 2.63214 2 8 ack 40 ------- 1 5.0 0.0 7 22
r 2.64006 9 4 ack 40 ------- 1 5.0 0.0 14 29
+ 2.64006 4 2 ack 40 ------- 1 5.0 0.0 14 29
- 2.64006 4 2 ack 40 ------- 1 5.0 0.0 14 29
r 2.64046 4 2 ack 40 ------- 1 5.0 0.0 8 23
h 2.64046 2 8 ack 40 ------- 1 5.0 0.0 8 23
r 2.64878 4 2 ack 40 ------- 1 5.0 0.0 9 24
h 2.64878 2 8 ack 40 ------- 1 5.0 0.0 9 24
r 2.6571 4 2 ack 40 ------- 1 5.0 0.0 10 25
h 2.6571 2 8 ack 40 ------- 1 5.0 0.0 10 25
r 2.66542 4 2 ack 40 ------- 1 5.0 0.0 11 26
h 2.66542 2 8 ack 40 ------- 1 5.0 0.0 11 26
r 2.67374 4 2 ack 40 ------- 1 5.0 0.0 12 27
h 2.67374 2 8 ack 40 ------- 1 5.0 0.0 12 27
r 2.68206 4 2 ack 40 ------- 1 5.0 0.0 13 28
h 2.68206 2 8 ack 40 ------- 1 5.0 0.0 13 28
r 2.69038 4 2 ack 40 ------- 1 5.0 0.0 14 29
h 2.69038 2 8 ack 40 ------- 1 5.0 0.0 14 29
+ 2.73214 2 8 ack 40 ------- 1 5.0 0.0 7 22
- 2.73214 2 8 ack 40 ------- 1 5.0 0.0 7 22
+ 2.74046 2 8 ack 40 ------- 1 5.0 0.0 8 23
- 2.74046 2 8 ack 40 ------- 1 5.0 0.0 8 23
+ 2.74878 2 8 ack 40 ------- 1 5.0 0.0 9 24
- 2.74878 2 8 ack 40 ------- 1 5.0 0.0 9 24
+ 2.7571 2 8 ack 40 ------- 1 5.0 0.0 10 25
- 2.7571 2 8 ack 40 ------- 1 5.0 0.0 10 25
+ 2.76542 2 8 ack 40 ------- 1 5.0 0.0 11 26
- 2.76542 2 8 ack 40 ------- 1 5.0 0.0 11 26
+ 2.77374 2 8 ack 40 ------- 1 5.0 0.0 12 27
- 2.77374 2 8 ack 40 ------- 1 5.0 0.0 12 27
+ 2.78206 2 8 ack 40 ------- 1 5.0 0.0 13 28
- 2.78206 2 8 ack 40 ------- 1 5.0 0.0 13 28
+ 2.79038 2 8 ack 40 ------- 1 5.0 0.0 14 29
- 2.79038 2 8 ack 40 ------- 1 5.0 0.0 14 29
r 2.832195 8 0 ack 40 ------- 1 5.0 0.0 7 22
h 2.832195 0 8 tcp 1040 ------- 1 0.0 5.0 15 30
h 2.832195 0 8 tcp 1040 ------- 1 0.0 5.0 16 31
r 2.840515 8 0 ack 40 ------- 1 5.0 0.0 8 23
h 2.840515 0 8 tcp 1040 ------- 1 0.0 5.0 17 32
h 2.840515 0 8 tcp 1040 ------- 1 0.0 5.0 18 33
r 2.848835 8 0 ack 40 ------- 1 5.0 0.0 9 24
h 2.848835 0 8 tcp 1040 ------- 1 0.0 5.0 19 34
h 2.848835 0 8 tcp 1040 ------- 1 0.0 5.0 20 35
r 2.857155 8 0 ack 40 ------- 1 5.0 0.0 10 25
h 2.857155 0 8 tcp 1040 ------- 1 0.0 5.0 21 36
h 2.857155 0 8 tcp 1040 ------- 1 0.0 5.0 22 37
r 2.865475 8 0 ack 40 ------- 1 5.0 0.0 11 26
h 2.865475 0 8 tcp 1040 ------- 1 0.0 5.0 23 38
h 2.865475 0 8 tcp 1040 ------- 1 0.0 5.0 24 39
r 2.873795 8 0 ack 40 ------- 1 5.0 0.0 12 27
h 2.873795 0 8 tcp 1040 ------- 1 0.0 5.0 25 40
h 2.873795 0 8 tcp 1040 ------- 1 0.0 5.0 26 41
r 2.882115 8 0 ack 40 ------- 1 5.0 0.0 13 28
h 2.882115 0 8 tcp 1040 ------- 1 0.0 5.0 27 42
h 2.882115 0 8 tcp 1040 ------- 1 0.0 5.0 28 43
r 2.890435 8 0 ack 40 ------- 1 5.0 0.0 14 29
h 2.890435 0 8 tcp 1040 ------- 1 0.0 5.0 29 44
h 2.890435 0 8 tcp 1040 ------- 1 0.0 5.0 30 45
+ 2.932195 0 8 tcp 1040 ------- 1 0.0 5.0 15 30
- 2.932195 0 8 tcp 1040 ------- 1 0.0 5.0 15 30
+ 2.932195 0 8 tcp 1040 ------- 1 0.0 5.0 16 31
- 2.933048 0 8 tcp 1040 ------- 1 0.0 5.0 16 31
+ 2.940515 0 8 tcp 1040 ------- 1 0.0 5.0 17 32
- 2.940515 0 8 tcp 1040 ------- 1 0.0 5.0 17 32
+ 2.940515 0 8 tcp 1040 ------- 1 0.0 5.0 18 33
- 2.941368 0 8 tcp 1040 ------- 1 0.0 5.0 18 33
+ 2.948835 0 8 tcp 1040 ------- 1 0.0 5.0 19 34
- 2.948835 0 8 tcp 1040 ------- 1 0.0 5.0 19 34
+ 2.948835 0 8 tcp 1040 ------- 1 0.0 5.0 20 35
- 2.949688 0 8 tcp 1040 ------- 1 0.0 5.0 20 35
+ 2.957155 0 8 tcp 1040 ------- 1 0.0 5.0 21 36
- 2.957155 0 8 tcp 1040 ------- 1 0.0 5.0 21 36
+ 2.957155 0 8 tcp 1040 ------- 1 0.0 5.0 22 37
- 2.958008 0 8 tcp 1040 ------- 1 0.0 5.0 22 37
+ 2.965475 0 8 tcp 1040 ------- 1 0.0 5.0 23 38
- 2.965475 0 8 tcp 1040 ------- 1 0.0 5.0 23 38
+ 2.965475 0 8 tcp 1040 ------- 1 0.0 5.0 24 39
- 2.966328 0 8 tcp 1040 ------- 1 0.0 5.0 24 39
+ 2.973795 0 8 tcp 1040 ------- 1 0.0 5.0 25 40
- 2.973795 0 8 tcp 1040 ------- 1 0.0 5.0 25 40
+ 2.973795 0 8 tcp 1040 ------- 1 0.0 5.0 26 41
- 2.974648 0 8 tcp 1040 ------- 1 0.0 5.0 26 41
+ 2.982115 0 8 tcp 1040 ------- 1 0.0 5.0 27 42
- 2.982115 0 8 tcp 1040 ------- 1 0.0 5.0 27 42
+ 2.982115 0 8 tcp 1040 ------- 1 0.0 5.0 28 43
- 2.982968 0 8 tcp 1040 ------- 1 0.0 5.0 28 43
+ 2.990435 0 8 tcp 1040 ------- 1 0.0 5.0 29 44
- 2.990435 0 8 tcp 1040 ------- 1 0.0 5.0 29 44
+ 2.990435 0 8 tcp 1040 ------- 1 0.0 5.0 30 45
- 2.991288 0 8 tcp 1040 ------- 1 0.0 5.0 30 45
r 3.033042 8 2 tcp 1040 ------- 1 0.0 5.0 15 30
+ 3.033042 2 4 tcp 1040 ------- 1 0.0 5.0 15 30
- 3.033042 2 4 tcp 1040 ------- 1 0.0 5.0 15 30
r 3.033895 8 2 tcp 1040 ------- 1 0.0 5.0 16 31
+ 3.033895 2 4 tcp 1040 ------- 1 0.0 5.0 16 31
r 3.041362 8 2 tcp 1040 ------- 1 0.0 5.0 17 32
+ 3.041362 2 4 tcp 1040 ------- 1 0.0 5.0 17 32
- 3.041362 2 4 tcp 1040 ------- 1 0.0 5.0 16 31
r 3.042215 8 2 tcp 1040 ------- 1 0.0 5.0 18 33
+ 3.042215 2 4 tcp 1040 ------- 1 0.0 5.0 18 33
r 3.049682 8 2 tcp 1040 ------- 1 0.0 5.0 19 34
+ 3.049682 2 4 tcp 1040 ------- 1 0.0 5.0 19 34
- 3.049682 2 4 tcp 1040 ------- 1 0.0 5.0 17 32
r 3.050535 8 2 tcp 1040 ------- 1 0.0 5.0 20 35
+ 3.050535 2 4 tcp 1040 ------- 1 0.0 5.0 20 35
r 3.058002 8 2 tcp 1040 ------- 1 0.0 5.0 21 36
+ 3.058002 2 4 tcp 1040 ------- 1 0.0 5.0 21 36
- 3.058002 2 4 tcp 1040 ------- 1 0.0 5.0 18 33
r 3.058855 8 2 tcp 1040 ------- 1 0.0 5.0 22 37
+ 3.058855 2 4 tcp 1040 ------- 1 0.0 5.0 22 37
r 3.066322 8 2 tcp 1040 ------- 1 0.0 5.0 23 38
+ 3.066322 2 4 tcp 1040 ------- 1 0.0 5.0 23 38
- 3.066322 2 4 tcp 1040 ------- 1 0.0 5.0 19 34
r 3.067175 8 2 tcp 1040 ------- 1 0.0 5.0 24 39
+ 3.067175 2 4 tcp 1040 ------- 1 0.0 5.0 24 39
r 3.074642 8 2 tcp 1040 ------- 1 0.0 5.0 25 40
+ 3.074642 2 4 tcp 1040 ------- 1 0.0 5.0 25 40
- 3.074642 2 4 tcp 1040 ------- 1 0.0 5.0 20 35
r 3.075495 8 2 tcp 1040 ------- 1 0.0 5.0 26 41
+ 3.075495 2 4 tcp 1040 ------- 1 0.0 5.0 26 41
r 3.082962 8 2 tcp 1040 ------- 1 0.0 5.0 27 42
+ 3.082962 2 4 tcp 1040 ------- 1 0.0 5.0 27 42
- 3.082962 2 4 tcp 1040 ------- 1 0.0 5.0 21 36
r 3.083815 8 2 tcp 1040 ------- 1 0.0 5.0 28 43
+ 3.083815 2 4 tcp 1040 ------- 1 0.0 5.0 28 43
r 3.091282 8 2 tcp 1040 ------- 1 0.0 5.0 29 44
+ 3.091282 2 4 tcp 1040 ------- 1 0.0 5.0 29 44
- 3.091282 2 4 tcp 1040 ------- 1 0.0 5.0 22 37
r 3.091362 2 4 tcp 1040 ------- 1 0.0 5.0 15 30
h 3.091362 4 9 tcp 1040 ------- 1 0.0 5.0 15 30
r 3.092135 8 2 tcp 1040 ------- 1 0.0 5.0 30 45
+ 3.092135 2 4 tcp 1040 ------- 1 0.0 5.0 30 45
- 3.099602 2 4 tcp 1040 ------- 1 0.0 5.0 23 38
r 3.099682 2 4 tcp 1040 ------- 1 0.0 5.0 16 31
h 3.099682 4 9 tcp 1040 ------- 1 0.0 5.0 16 31
- 3.107922 2 4 tcp 1040 ------- 1 0.0 5.0 24 39
r 3.108002 2 4 tcp 1040 ------- 1 0.0 5.0 17 32
h 3.108002 4 9 tcp 1040 ------- 1 0.0 5.0 17 32
- 3.116242 2 4 tcp 1040 ------- 1 0.0 5.0 25 40
r 3.116322 2 4 tcp 1040 ------- 1 0.0 5.0 18 33
h 3.116322 4 9 tcp 1040 ------- 1 0.0 5.0 18 33
- 3.124562 2 4 tcp 1040 ------- 1 0.0 5.0 26 41
r 3.124642 2 4 tcp 1040 ------- 1 0.0 5.0 19 34
h 3.124642 4 9 tcp 1040 ------- 1 0.0 5.0 19 34
- 3.132882 2 4 tcp 1040 ------- 1 0.0 5.0 27 42
r 3.132962 2 4 tcp 1040 ------- 1 0.0 5.0 20 35
h 3.132962 4 9 tcp 1040 ------- 1 0.0 5.0 20 35
- 3.141202 2 4 tcp 1040 ------- 1 0.0 5.0 28 43
r 3.141282 2 4 tcp 1040 ------- 1 0.0 5.0 21 36
h 3.141282 4 9 tcp 1040 ------- 1 0.0 5.0 21 36
+ 3.141362 4 9 tcp 1040 ------- 1 0.0 5.0 15 30
- 3.141362 4 9 tcp 1040 ------- 1 0.0 5.0 15 30
- 3.149522 2 4 tcp 1040 ------- 1 0.0 5.0 29 44
r 3.149602 2 4 tcp 1040 ------- 1 0.0 5.0 22 37
h 3.149602 4 9 tcp 1040 ------- 1 0.0 5.0 22 37
+ 3.149682 4 9 tcp 1040 ------- 1 0.0 5.0 16 31
- 3.149682 4 9 tcp 1040 ------- 1 0.0 5.0 16 31
- 3.157842 2 4 tcp 1040 ------- 1 0.0 5.0 30 45
r 3.157922 2 4 tcp 1040 ------- 1 0.0 5.0 23 38
h 3.157922 4 9 tcp 1040 ------- 1 0.0 5.0 23 38
+ 3.158002 4 9 tcp 1040 ------- 1 0.0 5.0 17 32
- 3.158002 4 9 tcp 1040 ------- 1 0.0 5.0 17 32
r 3.166242 2 4 tcp 1040 ------- 1 0.0 5.0 24 39
h 3.166242 4 9 tcp 1040 ------- 1 0.0 5.0 24 39
+ 3.166322 4 9 tcp 1040 ------- 1 0.0 5.0 18 33
- 3.166322 4 9 tcp 1040 ------- 1 0.0 5.0 18 33
r 3.174562 2 4 tcp 1040 ------- 1 0.0 5.0 25 40
h 3.174562 4 9 tcp 1040 ------- 1 0.0 5.0 25 40
+ 3.174642 4 9 tcp 1040 ------- 1 0.0 5.0 19 34
- 3.174642 4 9 tcp 1040 ------- 1 0.0 5.0 19 34
r 3.182882 2 4 tcp 1040 ------- 1 0.0 5.0 26 41
h 3.182882 4 9 tcp 1040 ------- 1 0.0 5.0 26 41
+ 3.182962 4 9 tcp 1040 ------- 1 0.0 5.0 20 35
- 3.182962 4 9 tcp 1040 ------- 1 0.0 5.0 20 35
r 3.191202 2 4 tcp 1040 ------- 1 0.0 5.0 27 42
h 3.191202 4 9 tcp 1040 ------- 1 0.0 5.0 27 42
+ 3.191282 4 9 tcp 1040 ------- 1 0.0 5.0 21 36
- 3.191282 4 9 tcp 1040 ------- 1 0.0 5.0 21 36
r 3.19221 9 5 tcp 1040 ------- 1 0.0 5.0 15 30
h 3.19221 5 9 ack 40 ------- 1 5.0 0.0 15 46
r 3.199522 2 4 tcp 1040 ------- 1 0.0 5.0 28 43
h 3.199522 4 9 tcp 1040 ------- 1 0.0 5.0 28 43
+ 3.199602 4 9 tcp 1040 ------- 1 0.0 5.0 22 37
- 3.199602 4 9 tcp 1040 ------- 1 0.0 5.0 22 37
r 3.20053 9 5 tcp 1040 ------- 1 0.0 5.0 16 31
h 3.20053 5 9 ack 40 ------- 1 5.0 0.0 16 47
r 3.207842 2 4 tcp 1040 ------- 1 0.0 5.0 29 44
h 3.207842 4 9 tcp 1040 ------- 1 0.0 5.0 29 44
+ 3.207922 4 9 tcp 1040 ------- 1 0.0 5.0 23 38
- 3.207922 4 9 tcp 1040 ------- 1 0.0 5.0 23 38
r 3.20885 9 5 tcp 1040 ------- 1 0.0 5.0 17 32
h 3.20885 5 9 ack 40 ------- 1 5.0 0.0 17 48
r 3.216162 2 4 tcp 1040 ------- 1 0.0 5.0 30 45
h 3.216162 4 9 tcp 1040 ------- 1 0.0 5.0 30 45
+ 3.216242 4 9 tcp 1040 ------- 1 0.0 5.0 24 39
- 3.216242 4 9 tcp 1040 ------- 1 0.0 5.0 24 39
r 3.21717 9 5 tcp 1040 ------- 1 0.0 5.0 18 33
h 3.21717 5 9 ack 40 ------- 1 5.0 0.0 18 49
+ 3.224562 4 9 tcp 1040 ------- 1 0.0 5.0 25 40
- 3.224562 4 9 tcp 1040 ------- 1 0.0 5.0 25 40
r 3.22549 9 5 tcp 1040 ------- 1 0.0 5.0 19 34
h 3.22549 5 9 ack 40 ------- 1 5.0 0.0 19 50
+ 3.232882 4 9 tcp 1040 ------- 1 0.0 5.0 26 41
- 3.232882 4 9 tcp 1040 ------- 1 0.0 5.0 26 41
r 3.23381 9 5 tcp 1040 ------- 1 0.0 5.0 20 35
h 3.23381 5 9 ack 40 ------- 1 5.0 0.0 20 51
+ 3.241202 4 9 tcp 1040 ------- 1 0.0 5.0 27 42
- 3.241202 4 9 tcp 1040 ------- 1 0.0 5.0 27 42
r 3.24213 9 5 tcp 1040 ------- 1 0.0 5.0 21 36
h 3.24213 5 9 ack 40 ------- 1 5.0 0.0 21 52
+ 3.24221 5 9 ack 40 ------- 1 5.0 0.0 15 46
- 3.24221 5 9 ack 40 ------- 1 5.0 0.0 15 46
+ 3.249522 4 9 tcp 1040 ------- 1 0.0 5.0 28 43
- 3.249522 4 9 tcp 1040 ------- 1 0.0 5.0 28 43
r 3.25045 9 5 tcp 1040 ------- 1 0.0 5.0 22 37
h 3.25045 5 9 ack 40 ------- 1 5.0 0.0 22 53
+ 3.25053 5 9 ack 40 ------- 1 5.0 0.0 16 47
- 3.25053 5 9 ack 40 ------- 1 5.0 0.0 16 47
+ 3.257842 4 9 tcp 1040 ------- 1 0.0 5.0 29 44
- 3.257842 4 9 tcp 1040 ------- 1 0.0 5.0 29 44
r 3.25877 9 5 tcp 1040 ------- 1 0.0 5.0 23 38
h 3.25877 5 9 ack 40 ------- 1 5.0 0.0 23 54
+ 3.25885 5 9 ack 40 ------- 1 5.0 0.0 17 48
- 3.25885 5 9 ack 40 ------- 1 5.0 0.0 17 48
+ 3.266162 4 9 tcp 1040 ------- 1 0.0 5.0 30 45
- 3.266162 4 9 tcp 1040 ------- 1 0.0 5.0 30 45
r 3.26709 9 5 tcp 1040 ------- 1 0.0 5.0 24 39
h 3.26709 5 9 ack 40 ------- 1 5.0 0.0 24 55
+ 3.26717 5 9 ack 40 ------- 1 5.0 0.0 18 49
- 3.26717 5 9 ack 40 ------- 1 5.0 0.0 18 49
r 3.27541 9 5 tcp 1040 ------- 1 0.0 5.0 25 40
h 3.27541 5 9 ack 40 ------- 1 5.0 0.0 25 56
+ 3.27549 5 9 ack 40 ------- 1 5.0 0.0 19 50
- 3.27549 5 9 ack 40 ------- 1 5.0 0.0 19 50
r 3.28373 9 5 tcp 1040 ------- 1 0.0 5.0 26 41
h 3.28373 5 9 ack 40 ------- 1 5.0 0.0 26 57
+ 3.28381 5 9 ack 40 ------- 1 5.0 0.0 20 51
- 3.28381 5 9 ack 40 ------- 1 5.0 0.0 20 51
r 3.29205 9 5 tcp 1040 ------- 1 0.0 5.0 27 42
h 3.29205 5 9 ack 40 ------- 1 5.0 0.0 27 58
+ 3.29213 5 9 ack 40 ------- 1 5.0 0.0 21 52
- 3.29213 5 9 ack 40 ------- 1 5.0 0.0 21 52
r 3.292265 9 4 ack 40 ------- 1 5.0 0.0 15 46
+ 3.292265 4 2 ack 40 ------- 1 5.0 0.0 15 46
- 3.292265 4 2 ack 40 ------- 1 5.0 0.0 15 46
r 3.30037 9 5 tcp 1040 ------- 1 0.0 5.0 28 43
h 3.30037 5 9 ack 40 ------- 1 5.0 0.0 28 59
+ 3.30045 5 9 ack 40 ------- 1 5.0 0.0 22 53
- 3.30045 5 9 ack 40 ------- 1 5.0 0.0 22 53
r 3.300585 9 4 ack 40 ------- 1 5.0 0.0 16 47
+ 3.300585 4 2 ack 40 ------- 1 5.0 0.0 16 47
- 3.300585 4 2 ack 40 ------- 1 5.0 0.0 16 47
r 3.30869 9 5 tcp 1040 ------- 1 0.0 5.0 29 44
h 3.30869 5 9 ack 40 ------- 1 5.0 0.0 29 60
+ 3.30877 5 9 ack 40 ------- 1 5.0 0.0 23 54
- 3.30877 5 9 ack 40 ------- 1 5.0 0.0 23 54
r 3.308905 9 4 ack 40 ------- 1 5.0 0.0 17 48
+ 3.308905 4 2 ack 40 ------- 1 5.0 0.0 17 48
- 3.308905 4 2 ack 40 ------- 1 5.0 0.0 17 48
r 3.31701 9 5 tcp 1040 ------- 1 0.0 5.0 30 45
h 3.31701 5 9 ack 40 ------- 1 5.0 0.0 30 61
+ 3.31709 5 9 ack 40 ------- 1 5.0 0.0 24 55
- 3.31709 5 9 ack 40 ------- 1 5.0 0.0 24 55
r 3.317225 9 4 ack 40 ------- 1 5.0 0.0 18 49
+ 3.317225 4 2 ack 40 ------- 1 5.0 0.0 18 49
- 3.317225 4 2 ack 40 ------- 1 5.0 0.0 18 49
+ 3.32541 5 9 ack 40 ------- 1 5.0 0.0 25 56
- 3.32541 5 9 ack 40 ------- 1 5.0 0.0 25 56
r 3.325545 9 4 ack 40 ------- 1 5.0 0.0 19 50
+ 3.325545 4 2 ack 40 ------- 1 5.0 0.0 19 50
- 3.325545 4 2 ack 40 ------- 1 5.0 0.0 19 50
+ 3.33373 5 9 ack 40 ------- 1 5.0 0.0 26 57
- 3.33373 5 9 ack 40 ------- 1 5.0 0.0 26 57
r 3.333865 9 4 ack 40 ------- 1 5.0 0.0 20 51
+ 3.333865 4 2 ack 40 ------- 1 5.0 0.0 20 51
- 3.333865 4 2 ack 40 ------- 1 5.0 0.0 20 51
+ 3.34205 5 9 ack 40 ------- 1 5.0 0.0 27 58
- 3.34205 5 9 ack 40 ------- 1 5.0 0.0 27 58
r 3.342185 9 4 ack 40 ------- 1 5.0 0.0 21 52
+ 3.342185 4 2 ack 40 ------- 1 5.0 0.0 21 52
- 3.342185 4 2 ack 40 ------- 1 5.0 0.0 21 52
r 3.342585 4 2 ack 40 ------- 1 5.0 0.0 15 46
h 3.342585 2 8 ack 40 ------- 1 5.0 0.0 15 46
+ 3.35037 5 9 ack 40 ------- 1 5.0 0.0 28 59
- 3.35037 5 9 ack 40 ------- 1 5.0 0.0 28 59
r 3.350505 9 4 ack 40 ------- 1 5.0 0.0 22 53
+ 3.350505 4 2 ack 40 ------- 1 5.0 0.0 22 53
- 3.350505 4 2 ack 40 ------- 1 5.0 0.0 22 53
r 3.350905 4 2 ack 40 ------- 1 5.0 0.0 16 47
h 3.350905 2 8 ack 40 ------- 1 5.0 0.0 16 47
+ 3.35869 5 9 ack 40 ------- 1 5.0 0.0 29 60
- 3.35869 5 9 ack 40 ------- 1 5.0 0.0 29 60
r 3.358825 9 4 ack 40 ------- 1 5.0 0.0 23 54
+ 3.358825 4 2 ack 40 ------- 1 5.0 0.0 23 54
- 3.358825 4 2 ack 40 ------- 1 5.0 0.0 23 54
r 3.359225 4 2 ack 40 ------- 1 5.0 0.0 17 48
h 3.359225 2 8 ack 40 ------- 1 5.0 0.0 17 48
+ 3.36701 5 9 ack 40 ------- 1 5.0 0.0 30 61
- 3.36701 5 9 ack 40 ------- 1 5.0 0.0 30 61
r 3.367145 9 4 ack 40 ------- 1 5.0 0.0 24 55
+ 3.367145 4 2 ack 40 ------- 1 5.0 0.0 24 55
- 3.367145 4 2 ack 40 ------- 1 5.0 0.0 24 55
r 3.367545 4 2 ack 40 ------- 1 5.0 0.0 18 49
h 3.367545 2 8 ack 40 ------- 1 5.0 0.0 18 49
r 3.375465 9 4 ack 40 ------- 1 5.0 0.0 25 56
+ 3.375465 4 2 ack 40 ------- 1 5.0 0.0 25 56
- 3.375465 4 2 ack 40 ------- 1 5.0 0.0 25 56
r 3.375865 4 2 ack 40 ------- 1 5.0 0.0 19 50
h 3.375865 2 8 ack 40 ------- 1 5.0 0.0 19 50
r 3.383785 9 4 ack 40 ------- 1 5.0 0.0 26 57
+ 3.383785 4 2 ack 40 ------- 1 5.0 0.0 26 57
- 3.383785 4 2 ack 40 ------- 1 5.0 0.0 26 57
r 3.384185 4 2 ack 40 ------- 1 5.0 0.0 20 51
h 3.384185 2 8 ack 40 ------- 1 5.0 0.0 20 51
r 3.392105 9 4 ack 40 ------- 1 5.0 0.0 27 58
+ 3.392105 4 2 ack 40 ------- 1 5.0 0.0 27 58
- 3.392105 4 2 ack 40 ------- 1 5.0 0.0 27 58
r 3.392505 4 2 ack 40 ------- 1 5.0 0.0 21 52
h 3.392505 2 8 ack 40 ------- 1 5.0 0.0 21 52
r 3.400425 9 4 ack 40 ------- 1 5.0 0.0 28 59
+ 3.400425 4 2 ack 40 ------- 1 5.0 0.0 28 59
- 3.400425 4 2 ack 40 ------- 1 5.0 0.0 28 59
r 3.400825 4 2 ack 40 ------- 1 5.0 0.0 22 53
h 3.400825 2 8 ack 40 ------- 1 5.0 0.0 22 53
r 3.408745 9 4 ack 40 ------- 1 5.0 0.0 29 60
+ 3.408745 4 2 ack 40 ------- 1 5.0 0.0 29 60
- 3.408745 4 2 ack 40 ------- 1 5.0 0.0 29 60
r 3.409145 4 2 ack 40 ------- 1 5.0 0.0 23 54
h 3.409145 2 8 ack 40 ------- 1 5.0 0.0 23 54
r 3.417065 9 4 ack 40 ------- 1 5.0 0.0 30 61
+ 3.417065 4 2 ack 40 ------- 1 5.0 0.0 30 61
- 3.417065 4 2 ack 40 ------- 1 5.0 0.0 30 61
r 3.417465 4 2 ack 40 ------- 1 5.0 0.0 24 55
h 3.417465 2 8 ack 40 ------- 1 5.0 0.0 24 55
r 3.425785 4 2 ack 40 ------- 1 5.0 0.0 25 56
h 3.425785 2 8 ack 40 ------- 1 5.0 0.0 25 56
r 3.434105 4 2 ack 40 ------- 1 5.0 0.0 26 57
h 3.434105 2 8 ack 40 ------- 1 5.0 0.0 26 57
r 3.442425 4 2 ack 40 ------- 1 5.0 0.0 27 58
h 3.442425 2 8 ack 40 ------- 1 5.0 0.0 27 58
+ 3.442585 2 8 ack 40 ------- 1 5.0 0.0 15 46
- 3.442585 2 8 ack 40 ------- 1 5.0 0.0 15 46
r 3.450745 4 2 ack 40 ------- 1 5.0 0.0 28 59
h 3.450745 2 8 ack 40 ------- 1 5.0 0.0 28 59
+ 3.450905 2 8 ack 40 ------- 1 5.0 0.0 16 47
- 3.450905 2 8 ack 40 ------- 1 5.0 0.0 16 47
r 3.459065 4 2 ack 40 ------- 1 5.0 0.0 29 60
h 3.459065 2 8 ack 40 ------- 1 5.0 0.0 29 60
+ 3.459225 2 8 ack 40 ------- 1 5.0 0.0 17 48
- 3.459225 2 8 ack 40 ------- 1 5.0 0.0 17 48
r 3.467385 4 2 ack 40 ------- 1 5.0 0.0 30 61
h 3.467385 2 8 ack 40 ------- 1 5.0 0.0 30 61
+ 3.467545 2 8 ack 40 ------- 1 5.0 0.0 18 49
- 3.467545 2 8 ack 40 ------- 1 5.0 0.0 18 49
+ 3.475865 2 8 ack 40 ------- 1 5.0 0.0 19 50
- 3.475865 2 8 ack 40 ------- 1 5.0 0.0 19 50
+ 3.484185 2 8 ack 40 ------- 1 5.0 0.0 20 51
- 3.484185 2 8 ack 40 ------- 1 5.0 0.0 20 51
+ 3.492505 2 8 ack 40 ------- 1 5.0 0.0 21 52
- 3.492505 2 8 ack 40 ------- 1 5.0 0.0 21 52
+ 3.500825 2 8 ack 40 ------- 1 5.0 0.0 22 53