V -t * -v 1.0a5 -a 0
A -t * -n 1 -p 0 -o 0x7fffffff -c 30 -a 1
A -t * -h 1 -m 1073741823 -s 0
n -t * -a 4 -s 4 -S UP -v circle -c black -i black
n -t * -a 0 -s 0 -S UP -v circle -c black -i black
n -t * -a 1 -s 1 -S UP -v circle -c black -i black
n -t * -a 2 -s 2 -S UP -v circle -c black -i black
n -t * -a 3 -s 3 -S UP -v circle -c black -i black
l -t * -s 0 -d 1 -S UP -r 3000000 -D 0.01 -c black
l -t * -s 1 -d 2 -S UP -r 80000 -D 0.5 -c black
l -t * -s 2 -d 3 -S UP -r 80000 -D 0.5 -c black
l -t * -s 3 -d 4 -S UP -r 3000000 -D 0.050000000000000003 -c black
+ -t 0.5 -s 0 -d 1 -p tcp -e 40 -c 0 -i 0 -a 0 -x {0.0 4.0 0 ------- null}
- -t 0.5 -s 0 -d 1 -p tcp -e 40 -c 0 -i 0 -a 0 -x {0.0 4.0 0 ------- null}
h -t 0.5 -s 0 -d 1 -p tcp -e 40 -c 0 -i 0 -a 0 -x {0.0 4.0 -1 ------- null}
r -t 0.510106666666667 -s 0 -d 1 -p tcp -e 40 -c 0 -i 0 -a 0 -x {0.0 4.0 0 ------- null}
+ -t 0.510106666666667 -s 1 -d 2 -p tcp -e 40 -c 0 -i 0 -a 0 -x {0.0 4.0 0 ------- null}
- -t 0.510106666666667 -s 1 -d 2 -p tcp -e 40 -c 0 -i 0 -a 0 -x {0.0 4.0 0 ------- null}
h -t 0.510106666666667 -s 1 -d 2 -p tcp -e 40 -c 0 -i 0 -a 0 -x {0.0 4.0 -1 ------- null}
r -t 1.01410666666667 -s 1 -d 2 -p tcp -e 40 -c 0 -i 0 -a 0 -x {0.0 4.0 0 ------- null}
+ -t 1.01410666666667 -s 2 -d 3 -p tcp -e 40 -c 0 -i 0 -a 0 -x {0.0 4.0 0 ------- null}
- -t 1.01410666666667 -s 2 -d 3 -p tcp -e 40 -c 0 -i 0 -a 0 -x {0.0 4.0 0 ------- null}
h -t 1.01410666666667 -s 2 -d 3 -p tcp -e 40 -c 0 -i 0 -a 0 -x {0.0 4.0 -1 ------- null}
r -t 1.51810666666667 -s 2 -d 3 -p tcp -e 40 -c 0 -i 0 -a 0 -x {0.0 4.0 0 ------- null}
+ -t 1.51810666666667 -s 3 -d 4 -p tcp -e 40 -c 0 -i 0 -a 0 -x {0.0 4.0 0 ------- null}
- -t 1.51810666666667 -s 3 -d 4 -p tcp -e 40 -c 0 -i 0 -a 0 -x {0.0 4.0 0 ------- null}
h -t 1.51810666666667 -s 3 -d 4 -p tcp -e 40 -c 0 -i 0 -a 0 -x {0.0 4.0 -1 ------- null}
r -t 1.56821333333333 -s 3 -d 4 -p tcp -e 40 -c 0 -i 0 -a 0 -x {0.0 4.0 0 ------- null}
+ -t 1.56821333333333 -s 4 -d 3 -p ack -e 40 -c 0 -i 1 -a 0 -x {4.0 0.0 0 ------- null}
- -t 1.56821333333333 -s 4 -d 3 -p ack -e 40 -c 0 -i 1 -a 0 -x {4.0 0.0 0 ------- null}
h -t 1.56821333333333 -s 4 -d 3 -p ack -e 40 -c 0 -i 1 -a 0 -x {4.0 0.0 -1 ------- null}
r -t 1.61832 -s 4 -d 3 -p ack -e 40 -c 0 -i 1 -a 0 -x {4.0 0.0 0 ------- null}
+ -t 1.61832 -s 3 -d 2 -p ack -e 40 -c 0 -i 1 -a 0 -x {4.0 0.0 0 ------- null}
- -t 1.61832 -s 3 -d 2 -p ack -e 40 -c 0 -i 1 -a 0 -x {4.0 0.0 0 ------- null}
h -t 1.61832 -s 3 -d 2 -p ack -e 40 -c 0 -i 1 -a 0 -x {4.0 0.0 -1 ------- null}
r -t 2.12232 -s 3 -d 2 -p ack -e 40 -c 0 -i 1 -a 0 -x {4.0 0.0 0 ------- null}
+ -t 2.12232 -s 2 -d 1 -p ack -e 40 -c 0 -i 1 -a 0 -x {4.0 0.0 0 ------- null}
- -t 2.12232 -s 2 -d 1 -p ack -e 40 -c 0 -i 1 -a 0 -x {4.0 0.0 0 ------- null}
h -t 2.12232 -s 2 -d 1 -p ack -e 40 -c 0 -i 1 -a 0 -x {4.0 0.0 -1 ------- null}
r -t 2.62632 -s 2 -d 1 -p ack -e 40 -c 0 -i 1 -a 0 -x {4.0 0.0 0 ------- null}
+ -t 2.62632 -s 1 -d 0 -p ack -e 40 -c 0 -i 1 -a 0 -x {4.0 0.0 0 ------- null}
- -t 2.62632 -s 1 -d 0 -p ack -e 40 -c 0 -i 1 -a 0 -x {4.0 0.0 0 ------- null}
h -t 2.62632 -s 1 -d 0 -p ack -e 40 -c 0 -i 1 -a 0 -x {4.0 0.0 -1 ------- null}
r -t 2.63642666666667 -s 1 -d 0 -p ack -e 40 -c 0 -i 1 -a 0 -x {4.0 0.0 0 ------- null}
+ -t 2.63642666666667 -s 0 -d 1 -p tcp -e 1040 -c 0 -i 2 -a 0 -x {0.0 4.0 1 ------- null}
- -t 2.63642666666667 -s 0 -d 1 -p tcp -e 1040 -c 0 -i 2 -a 0 -x {0.0 4.0 1 ------- null}
h -t 2.63642666666667 -s 0 -d 1 -p tcp -e 1040 -c 0 -i 2 -a 0 -x {0.0 4.0 -1 ------- null}
+ -t 2.63642666666667 -s 0 -d 1 -p tcp -e 1040 -c 0 -i 3 -a 0 -x {0.0 4.0 2 ------- null}
- -t 2.6392 -s 0 -d 1 -p tcp -e 1040 -c 0 -i 3 -a 0 -x {0.0 4.0 2 ------- null}
h -t 2.6392 -s 0 -d 1 -p tcp -e 1040 -c 0 -i 3 -a 0 -x {0.0 4.0 -1 ------- null}
r -t 2.6492 -s 0 -d 1 -p tcp -e 1040 -c 0 -i 2 -a 0 -x {0.0 4.0 1 ------- null}
+ -t 2.6492 -s 1 -d 2 -p tcp -e 1040 -c 0 -i 2 -a 0 -x {0.0 4.0 1 ------- null}
- -t 2.6492 -s 1 -d 2 -p tcp -e 1040 -c 0 -i 2 -a 0 -x {0.0 4.0 1 ------- null}
h -t 2.6492 -s 1 -d 2 -p tcp -e 1040 -c 0 -i 2 -a 0 -x {0.0 4.0 -1 ------- null}
r -t 2.65197333333333 -s 0 -d 1 -p tcp -e 1040 -c 0 -i 3 -a 0 -x {0.0 4.0 2 ------- null}
+ -t 2.65197333333333 -s 1 -d 2 -p tcp -e 1040 -c 0 -i 3 -a 0 -x {0.0 4.0 2 ------- null}
- -t 2.7532 -s 1 -d 2 -p tcp -e 1040 -c 0 -i 3 -a 0 -x {0.0 4.0 2 ------- null}
h -t 2.7532 -s 1 -d 2 -p tcp -e 1040 -c 0 -i 3 -a 0 -x {0.0 4.0 -1 ------- null}
r -t 3.2532 -s 1 -d 2 -p tcp -e 1040 -c 0 -i 2 -a 0 -x {0.0 4.0 1 ------- null}
+ -t 3.2532 -s 2 -d 3 -p tcp -e 1040 -c 0 -i 2 -a 0 -x {0.0 4.0 1 ------- null}
- -t 3.2532 -s 2 -d 3 -p tcp -e 1040 -c 0 -i 2 -a 0 -x {0.0 4.0 1 ------- null}
h -t 3.2532 -s 2 -d 3 -p tcp -e 1040 -c 0 -i 2 -a 0 -x {0.0 4.0 -1 ------- null}
r -t 3.3572 -s 1 -d 2 -p tcp -e 1040 -c 0 -i 3 -a 0 -x {0.0 4.0 2 ------- null}
+ -t 3.3572 -s 2 -d 3 -p tcp -e 1040 -c 0 -i 3 -a 0 -x {0.0 4.0 2 ------- null}
- -t 3.3572 -s 2 -d 3 -p tcp -e 1040 -c 0 -i 3 -a 0 -x {0.0 4.0 2 ------- null}
h -t 3.3572 -s 2 -d 3 -p tcp -e 1040 -c 0 -i 3 -a 0 -x {0.0 4.0 -1 ------- null}
r -t 3.8572 -s 2 -d 3 -p tcp -e 1040 -c 0 -i 2 -a 0 -x {0.0 4.0 1 ------- null}
+ -t 3.8572 -s 3 -d 4 -p tcp -e 1040 -c 0 -i 2 -a 0 -x {0.0 4.0 1 ------- null}
- -t 3.8572 -s 3 -d 4 -p tcp -e 1040 -c 0 -i 2 -a 0 -x {0.0 4.0 1 ------- null}
h -t 3.8572 -s 3 -d 4 -p tcp -e 1040 -c 0 -i 2 -a 0 -x {0.0 4.0 -1 ------- null}
r -t 3.90997333333333 -s 3 -d 4 -p tcp -e 1040 -c 0 -i 2 -a 0 -x {0.0 4.0 1 ------- null}
+ -t 3.90997333333333 -s 4 -d 3 -p ack -e 40 -c 0 -i 4 -a 0 -x {4.0 0.0 1 ------- null}
- -t 3.90997333333333 -s 4 -d 3 -p ack -e 40 -c 0 -i 4 -a 0 -x {4.0 0.0 1 ------- null}
h -t 3.90997333333333 -s 4 -d 3 -p ack -e 40 -c 0 -i 4 -a 0 -x {4.0 0.0 -1 ------- null}
r -t 3.96008 -s 4 -d 3 -p ack -e 40 -c 0 -i 4 -a 0 -x {4.0 0.0 1 ------- null}
+ -t 3.96008 -s 3 -d 2 -p ack -e 40 -c 0 -i 4 -a 0 -x {4.0 0.0 1 ------- null}
- -t 3.96008 -s 3 -d 2 -p ack -e 40 -c 0 -i 4 -a 0 -x {4.0 0.0 1 ------- null}
h -t 3.96008 -s 3 -d 2 -p ack -e 40 -c 0 -i 4 -a 0 -x {4.0 0.0 -1 ------- null}
r -t 3.9612 -s 2 -d 3 -p tcp -e 1040 -c 0 -i 3 -a 0 -x {0.0 4.0 2 ------- null}
+ -t 3.9612 -s 3 -d 4 -p tcp -e 1040 -c 0 -i 3 -a 0 -x {0.0 4.0 2 ------- null}
- -t 3.9612 -s 3 -d 4 -p tcp -e 1040 -c 0 -i 3 -a 0 -x {0.0 4.0 2 ------- null}
h -t 3.9612 -s 3 -d 4 -p tcp -e 1040 -c 0 -i 3 -a 0 -x {0.0 4.0 -1 ------- null}
r -t 4.01397333333333 -s 3 -d 4 -p tcp -e 1040 -c 0 -i 3 -a 0 -x {0.0 4.0 2 ------- null}
+ -t 4.01397333333333 -s 4 -d 3 -p ack -e 40 -c 0 -i 5 -a 0 -x {4.0 0.0 2 ------- null}
- -t 4.01397333333333 -s 4 -d 3 -p ack -e 40 -c 0 -i 5 -a 0 -x {4.0 0.0 2 ------- null}
h -t 4.01397333333333 -s 4 -d 3 -p ack -e 40 -c 0 -i 5 -a 0 -x {4.0 0.0 -1 ------- null}
r -t 4.06408 -s 4 -d 3 -p ack -e 40 -c 0 -i 5 -a 0 -x {4.0 0.0 2 ------- null}
+ -t 4.06408 -s 3 -d 2 -p ack -e 40 -c 0 -i 5 -a 0 -x {4.0 0.0 2 ------- null}
- -t 4.06408 -s 3 -d 2 -p ack -e 40 -c 0 -i 5 -a 0 -x {4.0 0.0 2 ------- null}
h -t 4.06408 -s 3 -d 2 -p ack -e 40 -c 0 -i 5 -a 0 -x {4.0 0.0 -1 ------- null}
r -t 4.46408 -s 3 -d 2 -p ack -e 40 -c 0 -i 4 -a 0 -x {4.0 0.0 1 ------- null}
+ -t 4.46408 -s 2 -d 1 -p ack -e 40 -c 0 -i 4 -a 0 -x {4.0 0.0 1 ------- null}
- -t 4.46408 -s 2 -d 1 -p ack -e 40 -c 0 -i 4 -a 0 -x {4.0 0.0 1 ------- null}
h -t 4.46408 -s 2 -d 1 -p ack -e 40 -c 0 -i 4 -a 0 -x {4.0 0.0 -1 ------- null}
r -t 4.56808 -s 3 -d 2 -p ack -e 40 -c 0 -i 5 -a 0 -x {4.0 0.0 2 ------- null}
+ -t 4.56808 -s 2 -d 1 -p ack -e 40 -c 0 -i 5 -a 0 -x {4.0 0.0 2 ------- null}
- -t 4.56808 -s 2 -d 1 -p ack -e 40 -c 0 -i 5 -a 0 -x {4.0 0.0 2 ------- null}
h -t 4.56808 -s 2 -d 1 -p ack -e 40 -c 0 -i 5 -a 0 -x {4.0 0.0 -1 ------- null}
r -t 4.96808 -s 2 -d 1 -p ack -e 40 -c 0 -i 4 -a 0 -x {4.0 0.0 1 ------- null}
+ -t 4.96808 -s 1 -d 0 -p ack -e 40 -c 0 -i 4 -a 0 -x {4.0 0.0 1 ------- null}
- -t 4.96808 -s 1 -d 0 -p ack -e 40 -c 0 -i 4 -a 0 -x {4.0 0.0 1 ------- null}
h -t 4.96808 -s 1 -d 0 -p ack -e 40 -c 0 -i 4 -a 0 -x {4.0 0.0 -1 ------- null}
r -t 4.97818666666667 -s 1 -d 0 -p ack -e 40 -c 0 -i 4 -a 0 -x {4.0 0.0 1 ------- null}
+ -t 4.97818666666667 -s 0 -d 1 -p tcp -e 1040 -c 0 -i 6 -a 0 -x {0.0 4.0 3 ------- null}
- -t 4.97818666666667 -s 0 -d 1 -p tcp -e 1040 -c 0 -i 6 -a 0 -x {0.0 4.0 3 ------- null}
h -t 4.97818666666667 -s 0 -d 1 -p tcp -e 1040 -c 0 -i 6 -a 0 -x {0.0 4.0 -1 ------- null}
+ -t 4.97818666666667 -s 0 -d 1 -p tcp -e 1040 -c 0 -i 7 -a 0 -x {0.0 4.0 4 ------- null}
- -t 4.98096 -s 0 -d 1 -p tcp -e 1040 -c 0 -i 7 -a 0 -x {0.0 4.0 4 ------- null}
h -t 4.98096 -s 0 -d 1 -p tcp -e 1040 -c 0 -i 7 -a 0 -x {0.0 4.0 -1 ------- null}
r -t 4.99096 -s 0 -d 1 -p tcp -e 1040 -c 0 -i 6 -a 0 -x {0.0 4.0 3 ------- null}
+ -t 4.99096 -s 1 -d 2 -p tcp -e 1040 -c 0 -i 6 -a 0 -x {0.0 4.0 3 ------- null}
- -t 4.99096 -s 1 -d 2 -p tcp -e 1040 -c 0 -i 6 -a 0 -x {0.0 4.0 3 ------- null}
h -t 4.99096 -s 1 -d 2 -p tcp -e 1040 -c 0 -i 6 -a 0 -x {0.0 4.0 -1 ------- null}
r -t 4.99373333333333 -s 0 -d 1 -p tcp -e 1040 -c 0 -i 7 -a 0 -x {0.0 4.0 4 ------- null}
+ -t 4.99373333333333 -s 1 -d 2 -p tcp -e 1040 -c 0 -i 7 -a 0 -x {0.0 4.0 4 ------- null}
r -t 5.07208 -s 2 -d 1 -p ack -e 40 -c 0 -i 5 -a 0 -x {4.0 0.0 2 ------- null}
+ -t 5.07208 -s 1 -d 0 -p ack -e 40 -c 0 -i 5 -a 0 -x {4.0 0.0 2 ------- null}
- -t 5.07208 -s 1 -d 0 -p ack -e 40 -c 0 -i 5 -a 0 -x {4.0 0.0 2 ------- null}
h -t 5.07208 -s 1 -d 0 -p ack -e 40 -c 0 -i 5 -a 0 -x {4.0 0.0 -1 ------- null}
r -t 5.08218666666667 -s 1 -d 0 -p ack -e 40 -c 0 -i 5 -a 0 -x {4.0 0.0 2 ------- null}
+ -t 5.08218666666667 -s 0 -d 1 -p tcp -e 1040 -c 0 -i 8 -a 0 -x {0.0 4.0 5 ------- null}
- -t 5.08218666666667 -s 0 -d 1 -p tcp -e 1040 -c 0 -i 8 -a 0 -x {0.0 4.0 5 ------- null}
h -t 5.08218666666667 -s 0 -d 1 -p tcp -e 1040 -c 0 -i 8 -a 0 -x {0.0 4.0 -1 ------- null}
+ -t 5.08218666666667 -s 0 -d 1 -p tcp -e 1040 -c 0 -i 9 -a 0 -x {0.0 4.0 6 ------- null}
- -t 5.08496 -s 0 -d 1 -p tcp -e 1040 -c 0 -i 9 -a 0 -x {0.0 4.0 6 ------- null}
h -t 5.08496 -s 0 -d 1 -p tcp -e 1040 -c 0 -i 9 -a 0 -x {0.0 4.0 -1 ------- null}
r -t 5.09496 -s 0 -d 1 -p tcp -e 1040 -c 0 -i 8 -a 0 -x {0.0 4.0 5 ------- null}
+ -t 5.09496 -s 1 -d 2 -p tcp -e 1040 -c 0 -i 8 -a 0 -x {0.0 4.0 5 ------- null}
- -t 5.09496 -s 1 -d 2 -p tcp -e 1040 -c 0 -i 7 -a 0 -x {0.0 4.0 4 ------- null}
h -t 5.09496 -s 1 -d 2 -p tcp -e 1040 -c 0 -i 7 -a 0 -x {0.0 4.0 -1 ------- null}
r -t 5.09773333333333 -s 0 -d 1 -p tcp -e 1040 -c 0 -i 9 -a 0 -x {0.0 4.0 6 ------- null}
+ -t 5.09773333333333 -s 1 -d 2 -p tcp -e 1040 -c 0 -i 9 -a 0 -x {0.0 4.0 6 ------- null}
- -t 5.19896 -s 1 -d 2 -p tcp -e 1040 -c 0 -i 8 -a 0 -x {0.0 4.0 5 ------- null}
h -t 5.19896 -s 1 -d 2 -p tcp -e 1040 -c 0 -i 8 -a 0 -x {0.0 4.0 -1 ------- null}
- -t 5.30296 -s 1 -d 2 -p tcp -e 1040 -c 0 -i 9 -a 0 -x {0.0 4.0 6 ------- null}
h -t 5.30296 -s 1 -d 2 -p tcp -e 1040 -c 0 -i 9 -a 0 -x {0.0 4.0 -1 ------- null}
r -t 5.59496 -s 1 -d 2 -p tcp -e 1040 -c 0 -i 6 -a 0 -x {0.0 4.0 3 ------- null}
+ -t 5.59496 -s 2 -d 3 -p tcp -e 1040 -c 0 -i 6 -a 0 -x {0.0 4.0 3 ------- null}
- -t 5.59496 -s 2 -d 3 -p tcp -e 1040 -c 0 -i 6 -a 0 -x {0.0 4.0 3 ------- null}
h -t 5.59496 -s 2 -d 3 -p tcp -e 1040 -c 0 -i 6 -a 0 -x {0.0 4.0 -1 ------- null}
r -t 5.69896 -s 1 -d 2 -p tcp -e 1040 -c 0 -i 7 -a 0 -x {0.0 4.0 4 ------- null}
+ -t 5.69896 -s 2 -d 3 -p tcp -e 1040 -c 0 -i 7 -a 0 -x {0.0 4.0 4 ------- null}
- -t 5.69896 -s 2 -d 3 -p tcp -e 1040 -c 0 -i 7 -a 0 -x {0.0 4.0 4 ------- null}
h -t 5.69896 -s 2 -d 3 -p tcp -e 1040 -c 0 -i 7 -a 0 -x {0.0 4.0 -1 ------- null}
r -t 5.80296 -s 1 -d 2 -p tcp -e 1040 -c 0 -i 8 -a 0 -x {0.0 4.0 5 ------- null}
+ -t 5.80296 -s 2 -d 3 -p tcp -e 1040 -c 0 -i 8 -a 0 -x {0.0 4.0 5 ------- null}
- -t 5.80296 -s 2 -d 3 -p tcp -e 1040 -c 0 -i 8 -a 0 -x {0.0 4.0 5 ------- null}
h -t 5.80296 -s 2 -d 3 -p tcp -e 1040 -c 0 -i 8 -a 0 -x {0.0 4.0 -1 ------- null}
r -t 5.90696 -s 1 -d 2 -p tcp -e 1040 -c 0 -i 9 -a 0 -x {0.0 4.0 6 ------- null}
+ -t 5.90696 -s 2 -d 3 -p tcp -e 1040 -c 0 -i 9 -a 0 -x {0.0 4.0 6 ------- null}
- -t 5.90696 -s 2 -d 3 -p tcp -e 1040 -c 0 -i 9 -a 0 -x {0.0 4.0 6 ------- null}
h -t 5.90696 -s 2 -d 3 -p tcp -e 1040 -c 0 -i 9 -a 0 -x {0.0 4.0 -1 ------- null}
r -t 6.19896 -s 2 -d 3 -p tcp -e 1040 -c 0 -i 6 -a 0 -x {0.0 4.0 3 ------- null}
+ -t 6.19896 -s 3 -d 4 -p tcp -e 1040 -c 0 -i 6 -a 0 -x {0.0 4.0 3 ------- null}
- -t 6.19896 -s 3 -d 4 -p tcp -e 1040 -c 0 -i 6 -a 0 -x {0.0 4.0 3 ------- null}
h -t 6.19896 -s 3 -d 4 -p tcp -e 1040 -c 0 -i 6 -a 0 -x {0.0 4.0 -1 ------- null}
r -t 6.25173333333333 -s 3 -d 4 -p tcp -e 1040 -c 0 -i 6 -a 0 -x {0.0 4.0 3 ------- null}
+ -t 6.25173333333333 -s 4 -d 3 -p ack -e 40 -c 0 -i 10 -a 0 -x {4.0 0.0 3 ------- null}
- -t 6.25173333333333 -s 4 -d 3 -p ack -e 40 -c 0 -i 10 -a 0 -x {4.0 0.0 3 ------- null}
h -t 6.25173333333333 -s 4 -d 3 -p ack -e 40 -c 0 -i 10 -a 0 -x {4.0 0.0 -1 ------- null}
r -t 6.30184 -s 4 -d 3 -p ack -e 40 -c 0 -i 10 -a 0 -x {4.0 0.0 3 ------- null}
+ -t 6.30184 -s 3 -d 2 -p ack -e 40 -c 0 -i 10 -a 0 -x {4.0 0.0 3 ------- null}
- -t 6.30184 -s 3 -d 2 -p ack -e 40 -c 0 -i 10 -a 0 -x {4.0 0.0 3 ------- null}
h -t 6.30184 -s 3 -d 2 -p ack -e 40 -c 0 -i 10 -a 0 -x {4.0 0.0 -1 ------- null}
r -t 6.30296 -s 2 -d 3 -p tcp -e 1040 -c 0 -i 7 -a 0 -x {0.0 4.0 4 ------- null}
+ -t 6.30296 -s 3 -d 4 -p tcp -e 1040 -c 0 -i 7 -a 0 -x {0.0 4.0 4 ------- null}
- -t 6.30296 -s 3 -d 4 -p tcp -e 1040 -c 0 -i 7 -a 0 -x {0.0 4.0 4 ------- null}
h -t 6.30296 -s 3 -d 4 -p tcp -e 1040 -c 0 -i 7 -a 0 -x {0.0 4.0 -1 ------- null}
r -t 6.35573333333333 -s 3 -d 4 -p tcp -e 1040 -c 0 -i 7 -a 0 -x {0.0 4.0 4 ------- null}
+ -t 6.35573333333333 -s 4 -d 3 -p ack -e 40 -c 0 -i 11 -a 0 -x {4.0 0.0 4 ------- null}
- -t 6.35573333333333 -s 4 -d 3 -p ack -e 40 -c 0 -i 11 -a 0 -x {4.0 0.0 4 ------- null}
h -t 6.35573333333333 -s 4 -d 3 -p ack -e 40 -c 0 -i 11 -a 0 -x {4.0 0.0 -1 ------- null}
r -t 6.40584 -s 4 -d 3 -p ack -e 40 -c 0 -i 11 -a 0 -x {4.0 0.0 4 ------- null}
+ -t 6.40584 -s 3 -d 2 -p ack -e 40 -c 0 -i 11 -a 0 -x {4.0 0.0 4 ------- null}
- -t 6.40584 -s 3 -d 2 -p ack -e 40 -c 0 -i 11 -a 0 -x {4.0 0.0 4 ------- null}
h -t 6.40584 -s 3 -d 2 -p ack -e 40 -c 0 -i 11 -a 0 -x {4.0 0.0 -1 ------- null}
r -t 6.40696 -s 2 -d 3 -p tcp -e 1040 -c 0 -i 8 -a 0 -x {0.0 4.0 5 ------- null}
+ -t 6.40696 -s 3 -d 4 -p tcp -e 1040 -c 0 -i 8 -a 0 -x {0.0 4.0 5 ------- null}
- -t 6.40696 -s 3 -d 4 -p tcp -e 1040 -c 0 -i 8 -a 0 -x {0.0 4.0 5 ------- null}
h -t 6.40696 -s 3 -d 4 -p tcp -e 1040 -c 0 -i 8 -a 0 -x {0.0 4.0 -1 ------- null}
r -t 6.45973333333333 -s 3 -d 4 -p tcp -e 1040 -c 0 -i 8 -a 0 -x {0.0 4.0 5 ------- null}
+ -t 6.45973333333333 -s 4 -d 3 -p ack -e 40 -c 0 -i 12 -a 0 -x {4.0 0.0 5 ------- null}
- -t 6.45973333333333 -s 4 -d 3 -p ack -e 40 -c 0 -i 12 -a 0 -x {4.0 0.0 5 ------- null}
h -t 6.45973333333333 -s 4 -d 3 -p ack -e 40 -c 0 -i 12 -a 0 -x {4.0 0.0 -1 ------- null}
r -t 6.50984 -s 4 -d 3 -p ack -e 40 -c 0 -i 12 -a 0 -x {4.0 0.0 5 ------- null}
+ -t 6.50984 -s 3 -d 2 -p ack -e 40 -c 0 -i 12 -a 0 -x {4.0 0.0 5 ------- null}
- -t 6.50984 -s 3 -d 2 -p ack -e 40 -c 0 -i 12 -a 0 -x {4.0 0.0 5 ------- null}
h -t 6.50984 -s 3 -d 2 -p ack -e 40 -c 0 -i 12 -a 0 -x {4.0 0.0 -1 ------- null}
r -t 6.51096 -s 2 -d 3 -p tcp -e 1040 -c 0 -i 9 -a 0 -x {0.0 4.0 6 ------- null}
+ -t 6.51096 -s 3 -d 4 -p tcp -e 1040 -c 0 -i 9 -a 0 -x {0.0 4.0 6 ------- null}
- -t 6.51096 -s 3 -d 4 -p tcp -e 1040 -c 0 -i 9 -a 0 -x {0.0 4.0 6 ------- null}
h -t 6.51096 -s 3 -d 4 -p tcp -e 1040 -c 0 -i 9 -a 0 -x {0.0 4.0 -1 ------- null}
r -t 6.56373333333333 -s 3 -d 4 -p tcp -e 1040 -c 0 -i 9 -a 0 -x {0.0 4.0 6 ------- null}
+ -t 6.56373333333333 -s 4 -d 3 -p ack -e 40 -c 0 -i 13 -a 0 -x {4.0 0.0 6 ------- null}
- -t 6.56373333333333 -s 4 -d 3 -p ack -e 40 -c 0 -i 13 -a 0 -x {4.0 0.0 6 ------- null}
h -t 6.56373333333333 -s 4 -d 3 -p ack -e 40 -c 0 -i 13 -a 0 -x {4.0 0.0 -1 ------- null}
r -t 6.61384 -s 4 -d 3 -p ack -e 40 -c 0 -i 13 -a 0 -x {4.0 0.0 6 ------- null}
+ -t 6.61384 -s 3 -d 2 -p ack -e 40 -c 0 -i 13 -a 0 -x {4.0 0.0 6 ------- null}
- -t 6.61384 -s 3 -d 2 -p ack -e 40 -c 0 -i 13 -a 0 -x {4.0 0.0 6 ------- null}
h -t 6.61384 -s 3 -d 2 -p ack -e 40 -c 0 -i 13 -a 0 -x {4.0 0.0 -1 ------- null}
r -t 6.80584 -s 3 -d 2 -p ack -e 40 -c 0 -i 10 -a 0 -x {4.0 0.0 3 ------- null}
+ -t 6.80584 -s 2 -d 1 -p ack -e 40 -c 0 -i 10 -a 0 -x {4.0 0.0 3 ------- null}
- -t 6.80584 -s 2 -d 1 -p ack -e 40 -c 0 -i 10 -a 0 -x {4.0 0.0 3 ------- null}
h -t 6.80584 -s 2 -d 1 -p ack -e 40 -c 0 -i 10 -a 0 -x {4.0 0.0 -1 ------- null}
r -t 6.90984 -s 3 -d 2 -p ack -e 40 -c 0 -i 11 -a 0 -x {4.0 0.0 4 ------- null}
+ -t 6.90984 -s 2 -d 1 -p ack -e 40 -c 0 -i 11 -a 0 -x {4.0 0.0 4 ------- null}
- -t 6.90984 -s 2 -d 1 -p ack -e 40 -c 0 -i 11 -a 0 -x {4.0 0.0 4 ------- null}
h -t 6.90984 -s 2 -d 1 -p ack -e 40 -c 0 -i 11 -a 0 -x {4.0 0.0 -1 ------- null}
r -t 7.01384 -s 3 -d 2 -p ack -e 40 -c 0 -i 12 -a 0 -x {4.0 0.0 5 ------- null}
+ -t 7.01384 -s 2 -d 1 -p ack -e 40 -c 0 -i 12 -a 0 -x {4.0 0.0 5 ------- null}
- -t 7.01384 -s 2 -d 1 -p ack -e 40 -c 0 -i 12 -a 0 -x {4.0 0.0 5 ------- null}
h -t 7.01384 -s 2 -d 1 -p ack -e 40 -c 0 -i 12 -a 0 -x {4.0 0.0 -1 ------- null}
r -t 7.11784 -s 3 -d 2 -p ack -e 40 -c 0 -i 13 -a 0 -x {4.0 0.0 6 ------- null}
+ -t 7.11784 -s 2 -d 1 -p ack -e 40 -c 0 -i 13 -a 0 -x {4.0 0.0 6 ------- null}
- -t 7.11784 -s 2 -d 1 -p ack -e 40 -c 0 -i 13 -a 0 -x {4.0 0.0 6 ------- null}
h -t 7.11784 -s 2 -d 1 -p ack -e 40 -c 0 -i 13 -a 0 -x {4.0 0.0 -1 ------- null}
r -t 7.30984 -s 2 -d 1 -p ack -e 40 -c 0 -i 10 -a 0 -x {4.0 0.0 3 ------- null}
+ -t 7.30984 -s 1 -d 0 -p ack -e 40 -c 0 -i 10 -a 0 -x {4.0 0.0 3 ------- null}
- -t 7.30984 -s 1 -d 0 -p ack -e 40 -c 0 -i 10 -a 0 -x {4.0 0.0 3 ------- null}
h -t 7.30984 -s 1 -d 0 -p ack -e 40 -c 0 -i 10 -a 0 -x {4.0 0.0 -1 ------- null}
r -t 7.31994666666667 -s 1 -d 0 -p ack -e 40 -c 0 -i 10 -a 0 -x {4.0 0.0 3 ------- null}
+ -t 7.31994666666667 -s 0 -d 1 -p tcp -e 1040 -c 0 -i 14 -a 0 -x {0.0 4.0 7 ------- null}
- -t 7.31994666666667 -s 0 -d 1 -p tcp -e 1040 -c 0 -i 14 -a 0 -x {0.0 4.0 7 ------- null}
h -t 7.31994666666667 -s 0 -d 1 -p tcp -e 1040 -c 0 -i 14 -a 0 -x {0.0 4.0 -1 ------- null}
+ -t 7.31994666666667 -s 0 -d 1 -p tcp -e 1040 -c 0 -i 15 -a 0 -x {0.0 4.0 8 ------- null}
- -t 7.32272 -s 0 -d 1 -p tcp -e 1040 -c 0 -i 15 -a 0 -x {0.0 4.0 8 ------- null}
h -t 7.32272 -s 0 -d 1 -p tcp -e 1040 -c 0 -i 15 -a 0 -x {0.0 4.0 -1 ------- null}
r -t 7.33272 -s 0 -d 1 -p tcp -e 1040 -c 0 -i 14 -a 0 -x {0.0 4.0 7 ------- null}
+ -t 7.33272 -s 1 -d 2 -p tcp -e 1040 -c 0 -i 14 -a 0 -x {0.0 4.0 7 ------- null}
- -t 7.33272 -s 1 -d 2 -p tcp -e 1040 -c 0 -i 14 -a 0 -x {0.0 4.0 7 ------- null}
h -t 7.33272 -s 1 -d 2 -p tcp -e 1040 -c 0 -i 14 -a 0 -x {0.0 4.0 -1 ------- null}
r -t 7.33549333333333 -s 0 -d 1 -p tcp -e 1040 -c 0 -i 15 -a 0 -x {0.0 4.0 8 ------- null}
+ -t 7.33549333333333 -s 1 -d 2 -p tcp -e 1040 -c 0 -i 15 -a 0 -x {0.0 4.0 8 ------- null}
r -t 7.41384 -s 2 -d 1 -p ack -e 40 -c 0 -i 11 -a 0 -x {4.0 0.0 4 ------- null}
+ -t 7.41384 -s 1 -d 0 -p ack -e 40 -c 0 -i 11 -a 0 -x {4.0 0.0 4 ------- null}
- -t 7.41384 -s 1 -d 0 -p ack -e 40 -c 0 -i 11 -a 0 -x {4.0 0.0 4 ------- null}
h -t 7.41384 -s 1 -d 0 -p ack -e 40 -c 0 -i 11 -a 0 -x {4.0 0.0 -1 ------- null}
r -t 7.42394666666667 -s 1 -d 0 -p ack -e 40 -c 0 -i 11 -a 0 -x {4.0 0.0 4 ------- null}
+ -t 7.42394666666667 -s 0 -d 1 -p tcp -e 1040 -c 0 -i 16 -a 0 -x {0.0 4.0 9 ------- null}
- -t 7.42394666666667 -s 0 -d 1 -p tcp -e 1040 -c 0 -i 16 -a 0 -x {0.0 4.0 9 ------- null}
h -t 7.42394666666667 -s 0 -d 1 -p tcp -e 1040 -c 0 -i 16 -a 0 -x {0.0 4.0 -1 ------- null}
+ -t 7.42394666666667 -s 0 -d 1 -p tcp -e 1040 -c 0 -i 17 -a 0 -x {0.0 4.0 10 ------- null}
- -t 7.42672 -s 0 -d 1 -p tcp -e 1040 -c 0 -i 17 -a 0 -x {0.0 4.0 10 ------- null}
h -t 7.42672 -s 0 -d 1 -p tcp -e 1040 -c 0 -i 17 -a 0 -x {0.0 4.0 -1 ------- null}
- -t 7.43672 -s 1 -d 2 -p tcp -e 1040 -c 0 -i 15 -a 0 -x {0.0 4.0 8 ------- null}
h -t 7.43672 -s 1 -d 2 -p tcp -e 1040 -c 0 -i 15 -a 0 -x {0.0 4.0 -1 ------- null}
r -t 7.43672 -s 0 -d 1 -p tcp -e 1040 -c 0 -i 16 -a 0 -x {0.0 4.0 9 ------- null}
+ -t 7.43672 -s 1 -d 2 -p tcp -e 1040 -c 0 -i 16 -a 0 -x {0.0 4.0 9 ------- null}
r -t 7.43949333333333 -s 0 -d 1 -p tcp -e 1040 -c 0 -i 17 -a 0 -x {0.0 4.0 10 ------- null}
+ -t 7.43949333333333 -s 1 -d 2 -p tcp -e 1040 -c 0 -i 17 -a 0 -x {0.0 4.0 10 ------- null}
r -t 7.51784 -s 2 -d 1 -p ack -e 40 -c 0 -i 12 -a 0 -x {4.0 0.0 5 ------- null}
+ -t 7.51784 -s 1 -d 0 -p ack -e 40 -c 0 -i 12 -a 0 -x {4.0 0.0 5 ------- null}
- -t 7.51784 -s 1 -d 0 -p ack -e 40 -c 0 -i 12 -a 0 -x {4.0 0.0 5 ------- null}
h -t 7.51784 -s 1 -d 0 -p ack -e 40 -c 0 -i 12 -a 0 -x {4.0 0.0 -1 ------- null}
r -t 7.52794666666667 -s 1 -d 0 -p ack -e 40 -c 0 -i 12 -a 0 -x {4.0 0.0 5 ------- null}
+ -t 7.52794666666667 -s 0 -d 1 -p tcp -e 1040 -c 0 -i 18 -a 0 -x {0.0 4.0 11 ------- null}
- -t 7.52794666666667 -s 0 -d 1 -p tcp -e 1040 -c 0 -i 18 -a 0 -x {0.0 4.0 11 ------- null}
h -t 7.52794666666667 -s 0 -d 1 -p tcp -e 1040 -c 0 -i 18 -a 0 -x {0.0 4.0 -1 ------- null}
+ -t 7.52794666666667 -s 0 -d 1 -p tcp -e 1040 -c 0 -i 19 -a 0 -x {0.0 4.0 12 ------- null}
- -t 7.53072 -s 0 -d 1 -p tcp -e 1040 -c 0 -i 19 -a 0 -x {0.0 4.0 12 ------- null}
h -t 7.53072 -s 0 -d 1 -p tcp -e 1040 -c 0 -i 19 -a 0 -x {0.0 4.0 -1 ------- null}
- -t 7.54072 -s 1 -d 2 -p tcp -e 1040 -c 0 -i 16 -a 0 -x {0.0 4.0 9 ------- null}
h -t 7.54072 -s 1 -d 2 -p tcp -e 1040 -c 0 -i 16 -a 0 -x {0.0 4.0 -1 ------- null}
r -t 7.54072 -s 0 -d 1 -p tcp -e 1040 -c 0 -i 18 -a 0 -x {0.0 4.0 11 ------- null}
+ -t 7.54072 -s 1 -d 2 -p tcp -e 1040 -c 0 -i 18 -a 0 -x {0.0 4.0 11 ------- null}
r -t 7.54349333333333 -s 0 -d 1 -p tcp -e 1040 -c 0 -i 19 -a 0 -x {0.0 4.0 12 ------- null}
+ -t 7.54349333333333 -s 1 -d 2 -p tcp -e 1040 -c 0 -i 19 -a 0 -x {0.0 4.0 12 ------- null}
r -t 7.62184 -s 2 -d 1 -p ack -e 40 -c 0 -i 13 -a 0 -x {4.0 0.0 6 ------- null}
+ -t 7.62184 -s 1 -d 0 -p ack -e 40 -c 0 -i 13 -a 0 -x {4.0 0.0 6 ------- null}
- -t 7.62184 -s 1 -d 0 -p ack -e 40 -c 0 -i 13 -a 0 -x {4.0 0.0 6 ------- null}
h -t 7.62184 -s 1 -d 0 -p ack -e 40 -c 0 -i 13 -a 0 -x {4.0 0.0 -1 ------- null}
r -t 7.63194666666667 -s 1 -d 0 -p ack -e 40 -c 0 -i 13 -a 0 -x {4.0 0.0 6 ------- null}
+ -t 7.63194666666667 -s 0 -d 1 -p tcp -e 1040 -c 0 -i 20 -a 0 -x {0.0 4.0 13 ------- null}
- -t 7.63194666666667 -s 0 -d 1 -p tcp -e 1040 -c 0 -i 20 -a 0 -x {0.0 4.0 13 ------- null}
h -t 7.63194666666667 -s 0 -d 1 -p tcp -e 1040 -c 0 -i 20 -a 0 -x {0.0 4.0 -1 ------- null}
+ -t 7.63194666666667 -s 0 -d 1 -p tcp -e 1040 -c 0 -i 21 -a 0 -x {0.0 4.0 14 ------- null}
- -t 7.63472 -s 0 -d 1 -p tcp -e 1040 -c 0 -i 21 -a 0 -x {0.0 4.0 14 ------- null}
h -t 7.63472 -s 0 -d 1 -p tcp -e 1040 -c 0 -i 21 -a 0 -x {0.0 4.0 -1 ------- null}
- -t 7.64472 -s 1 -d 2 -p tcp -e 1040 -c 0 -i 17 -a 0 -x {0.0 4.0 10 ------- null}
h -t 7.64472 -s 1 -d 2 -p tcp -e 1040 -c 0 -i 17 -a 0 -x {0.0 4.0 -1 ------- null}
r -t 7.64472 -s 0 -d 1 -p tcp -e 1040 -c 0 -i 20 -a 0 -x {0.0 4.0 13 ------- null}
+ -t 7.64472 -s 1 -d 2 -p tcp -e 1040 -c 0 -i 20 -a 0 -x {0.0 4.0 13 ------- null}
r -t 7.64749333333333 -s 0 -d 1 -p tcp -e 1040 -c 0 -i 21 -a 0 -x {0.0 4.0 14 ------- null}
+ -t 7.64749333333333 -s 1 -d 2 -p tcp -e 1040 -c 0 -i 21 -a 0 -x {0.0 4.0 14 ------- null}
- -t 7.74872 -s 1 -d 2 -p tcp -e 1040 -c 0 -i 18 -a 0 -x {0.0 4.0 11 ------- null}
h -t 7.74872 -s 1 -d 2 -p tcp -e 1040 -c 0 -i 18 -a 0 -x {0.0 4.0 -1 ------- null}
- -t 7.85272 -s 1 -d 2 -p tcp -e 1040 -c 0 -i 19 -a 0 -x {0.0 4.0 12 ------- null}
h -t 7.85272 -s 1 -d 2 -p tcp -e 1040 -c 0 -i 19 -a 0 -x {0.0 4.0 -1 ------- null}
r -t 7.93672 -s 1 -d 2 -p tcp -e 1040 -c 0 -i 14 -a 0 -x {0.0 4.0 7 ------- null}
+ -t 7.93672 -s 2 -d 3 -p tcp -e 1040 -c 0 -i 14 -a 0 -x {0.0 4.0 7 ------- null}
- -t 7.93672 -s 2 -d 3 -p tcp -e 1040 -c 0 -i 14 -a 0 -x {0.0 4.0 7 ------- null}
h -t 7.93672 -s 2 -d 3 -p tcp -e 1040 -c 0 -i 14 -a 0 -x {0.0 4.0 -1 ------- null}
- -t 7.95672 -s 1 -d 2 -p tcp -e 1040 -c 0 -i 20 -a 0 -x {0.0 4.0 13 ------- null}
h -t 7.95672 -s 1 -d 2 -p tcp -e 1040 -c 0 -i 20 -a 0 -x {0.0 4.0 -1 ------- null}
r -t 8.04072 -s 1 -d 2 -p tcp -e 1040 -c 0 -i 15 -a 0 -x {0.0 4.0 8 ------- null}
+ -t 8.04072 -s 2 -d 3 -p tcp -e 1040 -c 0 -i 15 -a 0 -x {0.0 4.0 8 ------- null}
- -t 8.04072 -s 2 -d 3 -p tcp -e 1040 -c 0 -i 15 -a 0 -x {0.0 4.0 8 ------- null}
h -t 8.04072 -s 2 -d 3 -p tcp -e 1040 -c 0 -i 15 -a 0 -x {0.0 4.0 -1 ------- null}
- -t 8.06072 -s 1 -d 2 -p tcp -e 1040 -c 0 -i 21 -a 0 -x {0.0 4.0 14 ------- null}
h -t 8.06072 -s 1 -d 2 -p tcp -e 1040 -c 0 -i 21 -a 0 -x {0.0 4.0 -1 ------- null}
r -t 8.14472 -s 1 -d 2 -p tcp -e 1040 -c 0 -i 16 -a 0 -x {0.0 4.0 9 ------- null}
+ -t 8.14472 -s 2 -d 3 -p tcp -e 1040 -c 0 -i 16 -a 0 -x {0.0 4.0 9 ------- null}
- -t 8.14472 -s 2 -d 3 -p tcp -e 1040 -c 0 -i 16 -a 0 -x {0.0 4.0 9 ------- null}
h -t 8.14472 -s 2 -d 3 -p tcp -e 1040 -c 0 -i 16 -a 0 -x {0.0 4.0 -1 ------- null}
r -t 8.24872 -s 1 -d 2 -p tcp -e 1040 -c 0 -i 17 -a 0 -x {0.0 4.0 10 ------- null}
+ -t 8.24872 -s 2 -d 3 -p tcp -e 1040 -c 0 -i 17 -a 0 -x {0.0 4.0 10 ------- null}
- -t 8.24872 -s 2 -d 3 -p tcp -e 1040 -c 0 -i 17 -a 0 -x {0.0 4.0 10 ------- null}
h -t 8.24872 -s 2 -d 3 -p tcp -e 1040 -c 0 -i 17 -a 0 -x {0.0 4.0 -1 ------- null}
r -t 8.35272 -s 1 -d 2 -p tcp -e 1040 -c 0 -i 18 -a 0 -x {0.0 4.0 11 ------- null}
+ -t 8.35272 -s 2 -d 3 -p tcp -e 1040 -c 0 -i 18 -a 0 -x {0.0 4.0 11 ------- null}
- -t 8.35272 -s 2 -d 3 -p tcp -e 1040 -c 0 -i 18 -a 0 -x {0.0 4.0 11 ------- null}
h -t 8.35272 -s 2 -d 3 -p tcp -e 1040 -c 0 -i 18 -a 0 -x {0.0 4.0 -1 ------- null}
r -t 8.45672 -s 1 -d 2 -p tcp -e 1040 -c 0 -i 19 -a 0 -x {0.0 4.0 12 ------- null}
+ -t 8.45672 -s 2 -d 3 -p tcp -e 1040 -c 0 -i 19 -a 0 -x {0.0 4.0 12 ------- null}
- -t 8.45672 -s 2 -d 3 -p tcp -e 1040 -c 0 -i 19 -a 0 -x {0.0 4.0 12 ------- null}
h -t 8.45672 -s 2 -d 3 -p tcp -e 1040 -c 0 -i 19 -a 0 -x {0.0 4.0 -1 ------- null}
r -t 8.54072 -s 2 -d 3 -p tcp -e 1040 -c 0 -i 14 -a 0 -x {0.0 4.0 7 ------- null}
+ -t 8.54072 -s 3 -d 4 -p tcp -e 1040 -c 0 -i 14 -a 0 -x {0.0 4.0 7 ------- null}
- -t 8.54072 -s 3 -d 4 -p tcp -e 1040 -c 0 -i 14 -a 0 -x {0.0 4.0 7 ------- null}
h -t 8.54072 -s 3 -d 4 -p tcp -e 1040 -c 0 -i 14 -a 0 -x {0.0 4.0 -1 ------- null}
r -t 8.56072 -s 1 -d 2 -p tcp -e 1040 -c 0 -i 20 -a 0 -x {0.0 4.0 13 ------- null}
+ -t 8.56072 -s 2 -d 3 -p tcp -e 1040 -c 0 -i 20 -a 0 -x {0.0 4.0 13 ------- null}
- -t 8.56072 -s 2 -d 3 -p tcp -e 1040 -c 0 -i 20 -a 0 -x {0.0 4.0 13 ------- null}
h -t 8.56072 -s 2 -d 3 -p tcp -e 1040 -c 0 -i 20 -a 0 -x {0.0 4.0 -1 ------- null}
r -t 8.59349333333333 -s 3 -d 4 -p tcp -e 1040 -c 0 -i 14 -a 0 -x {0.0 4.0 7 ------- null}
+ -t 8.59349333333333 -s 4 -d 3 -p ack -e 40 -c 0 -i 22 -a 0 -x {4.0 0.0 7 ------- null}
- -t 8.59349333333333 -s 4 -d 3 -p ack -e 40 -c 0 -i 22 -a 0 -x {4.0 0.0 7 ------- null}
h -t 8.59349333333333 -s 4 -d 3 -p ack -e 40 -c 0 -i 22 -a 0 -x {4.0 0.0 -1 ------- null}
r -t 8.6436 -s 4 -d 3 -p ack -e 40 -c 0 -i 22 -a 0 -x {4.0 0.0 7 ------- null}
+ -t 8.6436 -s 3 -d 2 -p ack -e 40 -c 0 -i 22 -a 0 -x {4.0 0.0 7 ------- null}
- -t 8.6436 -s 3 -d 2 -p ack -e 40 -c 0 -i 22 -a 0 -x {4.0 0.0 7 ------- null}
h -t 8.6436 -s 3 -d 2 -p ack -e 40 -c 0 -i 22 -a 0 -x {4.0 0.0 -1 ------- null}
r -t 8.64472 -s 2 -d 3 -p tcp -e 1040 -c 0 -i 15 -a 0 -x {0.0 4.0 8 ------- null}
+ -t 8.64472 -s 3 -d 4 -p tcp -e 1040 -c 0 -i 15 -a 0 -x {0.0 4.0 8 ------- null}
- -t 8.64472 -s 3 -d 4 -p tcp -e 1040 -c 0 -i 15 -a 0 -x {0.0 4.0 8 ------- null}
h -t 8.64472 -s 3 -d 4 -p tcp -e 1040 -c 0 -i 15 -a 0 -x {0.0 4.0 -1 ------- null}
r -t 8.66472 -s 1 -d 2 -p tcp -e 1040 -c 0 -i 21 -a 0 -x {0.0 4.0 14 ------- null}
+ -t 8.66472 -s 2 -d 3 -p tcp -e 1040 -c 0 -i 21 -a 0 -x {0.0 4.0 14 ------- null}
- -t 8.66472 -s 2 -d 3 -p tcp -e 1040 -c 0 -i 21 -a 0 -x {0.0 4.0 14 ------- null}
h -t 8.66472 -s 2 -d 3 -p tcp -e 1040 -c 0 -i 21 -a 0 -x {0.0 4.0 -1 ------- null}
r -t 8.69749333333333 -s 3 -d 4 -p tcp -e 1040 -c 0 -i 15 -a 0 -x {0.0 4.0 8 ------- null}
+ -t 8.69749333333333 -s 4 -d 3 -p ack -e 40 -c 0 -i 23 -a 0 -x {4.0 0.0 8 ------- null}
- -t 8.69749333333333 -s 4 -d 3 -p ack -e 40 -c 0 -i 23 -a 0 -x {4.0 0.0 8 ------- null}
h -t 8.69749333333333 -s 4 -d 3 -p ack -e 40 -c 0 -i 23 -a 0 -x {4.0 0.0 -1 ------- null}
r -t 8.7476 -s 4 -d 3 -p ack -e 40 -c 0 -i 23 -a 0 -x {4.0 0.0 8 ------- null}
+ -t 8.7476 -s 3 -d 2 -p ack -e 40 -c 0 -i 23 -a 0 -x {4.0 0.0 8 ------- null}
- -t 8.7476 -s 3 -d 2 -p ack -e 40 -c 0 -i 23 -a 0 -x {4.0 0.0 8 ------- null}
h -t 8.7476 -s 3 -d 2 -p ack -e 40 -c 0 -i 23 -a 0 -x {4.0 0.0 -1 ------- null}
r -t 8.74872 -s 2 -d 3 -p tcp -e 1040 -c 0 -i 16 -a 0 -x {0.0 4.0 9 ------- null}
+ -t 8.74872 -s 3 -d 4 -p tcp -e 1040 -c 0 -i 16 -a 0 -x {0.0 4.0 9 ------- null}
- -t 8.74872 -s 3 -d 4 -p tcp -e 1040 -c 0 -i 16 -a 0 -x {0.0 4.0 9 ------- null}
h -t 8.74872 -s 3 -d 4 -p tcp -e 1040 -c 0 -i 16 -a 0 -x {0.0 4.0 -1 ------- null}
r -t 8.80149333333333 -s 3 -d 4 -p tcp -e 1040 -c 0 -i 16 -a 0 -x {0.0 4.0 9 ------- null}
+ -t 8.80149333333333 -s 4 -d 3 -p ack -e 40 -c 0 -i 24 -a 0 -x {4.0 0.0 9 ------- null}
- -t 8.80149333333333 -s 4 -d 3 -p ack -e 40 -c 0 -i 24 -a 0 -x {4.0 0.0 9 ------- null}
h -t 8.80149333333333 -s 4 -d 3 -p ack -e 40 -c 0 -i 24 -a 0 -x {4.0 0.0 -1 ------- null}
r -t 8.8516 -s 4 -d 3 -p ack -e 40 -c 0 -i 24 -a 0 -x {4.0 0.0 9 ------- null}
+ -t 8.8516 -s 3 -d 2 -p ack -e 40 -c 0 -i 24 -a 0 -x {4.0 0.0 9 ------- null}
- -t 8.8516 -s 3 -d 2 -p ack -e 40 -c 0 -i 24 -a 0 -x {4.0 0.0 9 ------- null}
h -t 8.8516 -s 3 -d 2 -p ack -e 40 -c 0 -i 24 -a 0 -x {4.0 0.0 -1 ------- null}
r -t 8.85272 -s 2 -d 3 -p tcp -e 1040 -c 0 -i 17 -a 0 -x {0.0 4.0 10 ------- null}
+ -t 8.85272 -s 3 -d 4 -p tcp -e 1040 -c 0 -i 17 -a 0 -x {0.0 4.0 10 ------- null}
- -t 8.85272 -s 3 -d 4 -p tcp -e 1040 -c 0 -i 17 -a 0 -x {0.0 4.0 10 ------- null}
h -t 8.85272 -s 3 -d 4 -p tcp -e 1040 -c 0 -i 17 -a 0 -x {0.0 4.0 -1 ------- null}