+ 0.5 0 1 tcp 40 ------- 0 0.0 4.0 0 0
- 0.5 0 1 tcp 40 ------- 0 0.0 4.0 0 0
r 0.510107 0 1 tcp 40 ------- 0 0.0 4.0 0 0
+ 0.510107 1 2 tcp 40 ------- 0 0.0 4.0 0 0
- 0.510107 1 2 tcp 40 ------- 0 0.0 4.0 0 0
r 1.014107 1 2 tcp 40 ------- 0 0.0 4.0 0 0
+ 1.014107 2 3 tcp 40 ------- 0 0.0 4.0 0 0
- 1.014107 2 3 tcp 40 ------- 0 0.0 4.0 0 0
r 1.518107 2 3 tcp 40 ------- 0 0.0 4.0 0 0
+ 1.518107 3 4 tcp 40 ------- 0 0.0 4.0 0 0
- 1.518107 3 4 tcp 40 ------- 0 0.0 4.0 0 0
r 1.568213 3 4 tcp 40 ------- 0 0.0 4.0 0 0
+ 1.568213 4 3 ack 40 ------- 0 4.0 0.0 0 1
- 1.568213 4 3 ack 40 ------- 0 4.0 0.0 0 1
r 1.61832 4 3 ack 40 ------- 0 4.0 0.0 0 1
+ 1.61832 3 2 ack 40 ------- 0 4.0 0.0 0 1
- 1.61832 3 2 ack 40 ------- 0 4.0 0.0 0 1
r 2.12232 3 2 ack 40 ------- 0 4.0 0.0 0 1
+ 2.12232 2 1 ack 40 ------- 0 4.0 0.0 0 1
- 2.12232 2 1 ack 40 ------- 0 4.0 0.0 0 1
r 2.62632 2 1 ack 40 ------- 0 4.0 0.0 0 1
+ 2.62632 1 0 ack 40 ------- 0 4.0 0.0 0 1
- 2.62632 1 0 ack 40 ------- 0 4.0 0.0 0 1
r 2.636427 1 0 ack 40 ------- 0 4.0 0.0 0 1
+ 2.636427 0 1 tcp 1040 ------- 0 0.0 4.0 1 2
- 2.636427 0 1 tcp 1040 ------- 0 0.0 4.0 1 2
+ 2.636427 0 1 tcp 1040 ------- 0 0.0 4.0 2 3
- 2.6392 0 1 tcp 1040 ------- 0 0.0 4.0 2 3
r 2.6492 0 1 tcp 1040 ------- 0 0.0 4.0 1 2
+ 2.6492 1 2 tcp 1040 ------- 0 0.0 4.0 1 2
- 2.6492 1 2 tcp 1040 ------- 0 0.0 4.0 1 2
r 2.651973 0 1 tcp 1040 ------- 0 0.0 4.0 2 3
+ 2.651973 1 2 tcp 1040 ------- 0 0.0 4.0 2 3
- 2.7532 1 2 tcp 1040 ------- 0 0.0 4.0 2 3
r 3.2532 1 2 tcp 1040 ------- 0 0.0 4.0 1 2
+ 3.2532 2 3 tcp 1040 ------- 0 0.0 4.0 1 2
- 3.2532 2 3 tcp 1040 ------- 0 0.0 4.0 1 2
r 3.3572 1 2 tcp 1040 ------- 0 0.0 4.0 2 3
+ 3.3572 2 3 tcp 1040 ------- 0 0.0 4.0 2 3
- 3.3572 2 3 tcp 1040 ------- 0 0.0 4.0 2 3
r 3.8572 2 3 tcp 1040 ------- 0 0.0 4.0 1 2
+ 3.8572 3 4 tcp 1040 ------- 0 0.0 4.0 1 2
- 3.8572 3 4 tcp 1040 ------- 0 0.0 4.0 1 2
r 3.909973 3 4 tcp 1040 ------- 0 0.0 4.0 1 2
+ 3.909973 4 3 ack 40 ------- 0 4.0 0.0 1 4
- 3.909973 4 3 ack 40 ------- 0 4.0 0.0 1 4
r 3.96008 4 3 ack 40 ------- 0 4.0 0.0 1 4
+ 3.96008 3 2 ack 40 ------- 0 4.0 0.0 1 4
- 3.96008 3 2 ack 40 ------- 0 4.0 0.0 1 4
r 3.9612 2 3 tcp 1040 ------- 0 0.0 4.0 2 3
+ 3.9612 3 4 tcp 1040 ------- 0 0.0 4.0 2 3
- 3.9612 3 4 tcp 1040 ------- 0 0.0 4.0 2 3
r 4.013973 3 4 tcp 1040 ------- 0 0.0 4.0 2 3
+ 4.013973 4 3 ack 40 ------- 0 4.0 0.0 2 5
- 4.013973 4 3 ack 40 ------- 0 4.0 0.0 2 5
r 4.06408 4 3 ack 40 ------- 0 4.0 0.0 2 5
+ 4.06408 3 2 ack 40 ------- 0 4.0 0.0 2 5
- 4.06408 3 2 ack 40 ------- 0 4.0 0.0 2 5
r 4.46408 3 2 ack 40 ------- 0 4.0 0.0 1 4
+ 4.46408 2 1 ack 40 ------- 0 4.0 0.0 1 4
- 4.46408 2 1 ack 40 ------- 0 4.0 0.0 1 4
r 4.56808 3 2 ack 40 ------- 0 4.0 0.0 2 5
+ 4.56808 2 1 ack 40 ------- 0 4.0 0.0 2 5
- 4.56808 2 1 ack 40 ------- 0 4.0 0.0 2 5
r 4.96808 2 1 ack 40 ------- 0 4.0 0.0 1 4
+ 4.96808 1 0 ack 40 ------- 0 4.0 0.0 1 4
- 4.96808 1 0 ack 40 ------- 0 4.0 0.0 1 4
r 4.978187 1 0 ack 40 ------- 0 4.0 0.0 1 4
+ 4.978187 0 1 tcp 1040 ------- 0 0.0 4.0 3 6
- 4.978187 0 1 tcp 1040 ------- 0 0.0 4.0 3 6
+ 4.978187 0 1 tcp 1040 ------- 0 0.0 4.0 4 7
- 4.98096 0 1 tcp 1040 ------- 0 0.0 4.0 4 7
r 4.99096 0 1 tcp 1040 ------- 0 0.0 4.0 3 6
+ 4.99096 1 2 tcp 1040 ------- 0 0.0 4.0 3 6
- 4.99096 1 2 tcp 1040 ------- 0 0.0 4.0 3 6
r 4.993733 0 1 tcp 1040 ------- 0 0.0 4.0 4 7
+ 4.993733 1 2 tcp 1040 ------- 0 0.0 4.0 4 7
r 5.07208 2 1 ack 40 ------- 0 4.0 0.0 2 5
+ 5.07208 1 0 ack 40 ------- 0 4.0 0.0 2 5
- 5.07208 1 0 ack 40 ------- 0 4.0 0.0 2 5
r 5.082187 1 0 ack 40 ------- 0 4.0 0.0 2 5
+ 5.082187 0 1 tcp 1040 ------- 0 0.0 4.0 5 8
- 5.082187 0 1 tcp 1040 ------- 0 0.0 4.0 5 8
+ 5.082187 0 1 tcp 1040 ------- 0 0.0 4.0 6 9
- 5.08496 0 1 tcp 1040 ------- 0 0.0 4.0 6 9
r 5.09496 0 1 tcp 1040 ------- 0 0.0 4.0 5 8
+ 5.09496 1 2 tcp 1040 ------- 0 0.0 4.0 5 8
- 5.09496 1 2 tcp 1040 ------- 0 0.0 4.0 4 7
r 5.097733 0 1 tcp 1040 ------- 0 0.0 4.0 6 9
+ 5.097733 1 2 tcp 1040 ------- 0 0.0 4.0 6 9
- 5.19896 1 2 tcp 1040 ------- 0 0.0 4.0 5 8
- 5.30296 1 2 tcp 1040 ------- 0 0.0 4.0 6 9
r 5.59496 1 2 tcp 1040 ------- 0 0.0 4.0 3 6
+ 5.59496 2 3 tcp 1040 ------- 0 0.0 4.0 3 6
- 5.59496 2 3 tcp 1040 ------- 0 0.0 4.0 3 6
r 5.69896 1 2 tcp 1040 ------- 0 0.0 4.0 4 7
+ 5.69896 2 3 tcp 1040 ------- 0 0.0 4.0 4 7
- 5.69896 2 3 tcp 1040 ------- 0 0.0 4.0 4 7
r 5.80296 1 2 tcp 1040 ------- 0 0.0 4.0 5 8
+ 5.80296 2 3 tcp 1040 ------- 0 0.0 4.0 5 8
- 5.80296 2 3 tcp 1040 ------- 0 0.0 4.0 5 8
r 5.90696 1 2 tcp 1040 ------- 0 0.0 4.0 6 9
+ 5.90696 2 3 tcp 1040 ------- 0 0.0 4.0 6 9
- 5.90696 2 3 tcp 1040 ------- 0 0.0 4.0 6 9
r 6.19896 2 3 tcp 1040 ------- 0 0.0 4.0 3 6
+ 6.19896 3 4 tcp 1040 ------- 0 0.0 4.0 3 6
- 6.19896 3 4 tcp 1040 ------- 0 0.0 4.0 3 6
r 6.251733 3 4 tcp 1040 ------- 0 0.0 4.0 3 6
+ 6.251733 4 3 ack 40 ------- 0 4.0 0.0 3 10
- 6.251733 4 3 ack 40 ------- 0 4.0 0.0 3 10
r 6.30184 4 3 ack 40 ------- 0 4.0 0.0 3 10
+ 6.30184 3 2 ack 40 ------- 0 4.0 0.0 3 10
- 6.30184 3 2 ack 40 ------- 0 4.0 0.0 3 10
r 6.30296 2 3 tcp 1040 ------- 0 0.0 4.0 4 7
+ 6.30296 3 4 tcp 1040 ------- 0 0.0 4.0 4 7
- 6.30296 3 4 tcp 1040 ------- 0 0.0 4.0 4 7
r 6.355733 3 4 tcp 1040 ------- 0 0.0 4.0 4 7
+ 6.355733 4 3 ack 40 ------- 0 4.0 0.0 4 11
- 6.355733 4 3 ack 40 ------- 0 4.0 0.0 4 11
r 6.40584 4 3 ack 40 ------- 0 4.0 0.0 4 11
+ 6.40584 3 2 ack 40 ------- 0 4.0 0.0 4 11
- 6.40584 3 2 ack 40 ------- 0 4.0 0.0 4 11
r 6.40696 2 3 tcp 1040 ------- 0 0.0 4.0 5 8
+ 6.40696 3 4 tcp 1040 ------- 0 0.0 4.0 5 8
- 6.40696 3 4 tcp 1040 ------- 0 0.0 4.0 5 8
r 6.459733 3 4 tcp 1040 ------- 0 0.0 4.0 5 8
+ 6.459733 4 3 ack 40 ------- 0 4.0 0.0 5 12
- 6.459733 4 3 ack 40 ------- 0 4.0 0.0 5 12
r 6.50984 4 3 ack 40 ------- 0 4.0 0.0 5 12
+ 6.50984 3 2 ack 40 ------- 0 4.0 0.0 5 12
- 6.50984 3 2 ack 40 ------- 0 4.0 0.0 5 12
r 6.51096 2 3 tcp 1040 ------- 0 0.0 4.0 6 9
+ 6.51096 3 4 tcp 1040 ------- 0 0.0 4.0 6 9
- 6.51096 3 4 tcp 1040 ------- 0 0.0 4.0 6 9
r 6.563733 3 4 tcp 1040 ------- 0 0.0 4.0 6 9
+ 6.563733 4 3 ack 40 ------- 0 4.0 0.0 6 13
- 6.563733 4 3 ack 40 ------- 0 4.0 0.0 6 13
r 6.61384 4 3 ack 40 ------- 0 4.0 0.0 6 13
+ 6.61384 3 2 ack 40 ------- 0 4.0 0.0 6 13
- 6.61384 3 2 ack 40 ------- 0 4.0 0.0 6 13
r 6.80584 3 2 ack 40 ------- 0 4.0 0.0 3 10
+ 6.80584 2 1 ack 40 ------- 0 4.0 0.0 3 10
- 6.80584 2 1 ack 40 ------- 0 4.0 0.0 3 10
r 6.90984 3 2 ack 40 ------- 0 4.0 0.0 4 11
+ 6.90984 2 1 ack 40 ------- 0 4.0 0.0 4 11
- 6.90984 2 1 ack 40 ------- 0 4.0 0.0 4 11
r 7.01384 3 2 ack 40 ------- 0 4.0 0.0 5 12
+ 7.01384 2 1 ack 40 ------- 0 4.0 0.0 5 12
- 7.01384 2 1 ack 40 ------- 0 4.0 0.0 5 12
r 7.11784 3 2 ack 40 ------- 0 4.0 0.0 6 13
+ 7.11784 2 1 ack 40 ------- 0 4.0 0.0 6 13
- 7.11784 2 1 ack 40 ------- 0 4.0 0.0 6 13
r 7.30984 2 1 ack 40 ------- 0 4.0 0.0 3 10
+ 7.30984 1 0 ack 40 ------- 0 4.0 0.0 3 10
- 7.30984 1 0 ack 40 ------- 0 4.0 0.0 3 10
r 7.319947 1 0 ack 40 ------- 0 4.0 0.0 3 10
+ 7.319947 0 1 tcp 1040 ------- 0 0.0 4.0 7 14
- 7.319947 0 1 tcp 1040 ------- 0 0.0 4.0 7 14
+ 7.319947 0 1 tcp 1040 ------- 0 0.0 4.0 8 15
- 7.32272 0 1 tcp 1040 ------- 0 0.0 4.0 8 15
r 7.33272 0 1 tcp 1040 ------- 0 0.0 4.0 7 14
+ 7.33272 1 2 tcp 1040 ------- 0 0.0 4.0 7 14
- 7.33272 1 2 tcp 1040 ------- 0 0.0 4.0 7 14
r 7.335493 0 1 tcp 1040 ------- 0 0.0 4.0 8 15
+ 7.335493 1 2 tcp 1040 ------- 0 0.0 4.0 8 15
r 7.41384 2 1 ack 40 ------- 0 4.0 0.0 4 11
+ 7.41384 1 0 ack 40 ------- 0 4.0 0.0 4 11
- 7.41384 1 0 ack 40 ------- 0 4.0 0.0 4 11
r 7.423947 1 0 ack 40 ------- 0 4.0 0.0 4 11
+ 7.423947 0 1 tcp 1040 ------- 0 0.0 4.0 9 16
- 7.423947 0 1 tcp 1040 ------- 0 0.0 4.0 9 16
+ 7.423947 0 1 tcp 1040 ------- 0 0.0 4.0 10 17
- 7.42672 0 1 tcp 1040 ------- 0 0.0 4.0 10 17
- 7.43672 1 2 tcp 1040 ------- 0 0.0 4.0 8 15
r 7.43672 0 1 tcp 1040 ------- 0 0.0 4.0 9 16
+ 7.43672 1 2 tcp 1040 ------- 0 0.0 4.0 9 16
r 7.439493 0 1 tcp 1040 ------- 0 0.0 4.0 10 17
+ 7.439493 1 2 tcp 1040 ------- 0 0.0 4.0 10 17
r 7.51784 2 1 ack 40 ------- 0 4.0 0.0 5 12
+ 7.51784 1 0 ack 40 ------- 0 4.0 0.0 5 12
- 7.51784 1 0 ack 40 ------- 0 4.0 0.0 5 12
r 7.527947 1 0 ack 40 ------- 0 4.0 0.0 5 12
+ 7.527947 0 1 tcp 1040 ------- 0 0.0 4.0 11 18
- 7.527947 0 1 tcp 1040 ------- 0 0.0 4.0 11 18
+ 7.527947 0 1 tcp 1040 ------- 0 0.0 4.0 12 19
- 7.53072 0 1 tcp 1040 ------- 0 0.0 4.0 12 19
- 7.54072 1 2 tcp 1040 ------- 0 0.0 4.0 9 16
r 7.54072 0 1 tcp 1040 ------- 0 0.0 4.0 11 18
+ 7.54072 1 2 tcp 1040 ------- 0 0.0 4.0 11 18
r 7.543493 0 1 tcp 1040 ------- 0 0.0 4.0 12 19
+ 7.543493 1 2 tcp 1040 ------- 0 0.0 4.0 12 19
r 7.62184 2 1 ack 40 ------- 0 4.0 0.0 6 13
+ 7.62184 1 0 ack 40 ------- 0 4.0 0.0 6 13
- 7.62184 1 0 ack 40 ------- 0 4.0 0.0 6 13
r 7.631947 1 0 ack 40 ------- 0 4.0 0.0 6 13
+ 7.631947 0 1 tcp 1040 ------- 0 0.0 4.0 13 20
- 7.631947 0 1 tcp 1040 ------- 0 0.0 4.0 13 20
+ 7.631947 0 1 tcp 1040 ------- 0 0.0 4.0 14 21
- 7.63472 0 1 tcp 1040 ------- 0 0.0 4.0 14 21
- 7.64472 1 2 tcp 1040 ------- 0 0.0 4.0 10 17
r 7.64472 0 1 tcp 1040 ------- 0 0.0 4.0 13 20
+ 7.64472 1 2 tcp 1040 ------- 0 0.0 4.0 13 20
r 7.647493 0 1 tcp 1040 ------- 0 0.0 4.0 14 21
+ 7.647493 1 2 tcp 1040 ------- 0 0.0 4.0 14 21
- 7.74872 1 2 tcp 1040 ------- 0 0.0 4.0 11 18
- 7.85272 1 2 tcp 1040 ------- 0 0.0 4.0 12 19
r 7.93672 1 2 tcp 1040 ------- 0 0.0 4.0 7 14
+ 7.93672 2 3 tcp 1040 ------- 0 0.0 4.0 7 14
- 7.93672 2 3 tcp 1040 ------- 0 0.0 4.0 7 14
- 7.95672 1 2 tcp 1040 ------- 0 0.0 4.0 13 20
r 8.04072 1 2 tcp 1040 ------- 0 0.0 4.0 8 15
+ 8.04072 2 3 tcp 1040 ------- 0 0.0 4.0 8 15
- 8.04072 2 3 tcp 1040 ------- 0 0.0 4.0 8 15
- 8.06072 1 2 tcp 1040 ------- 0 0.0 4.0 14 21
r 8.14472 1 2 tcp 1040 ------- 0 0.0 4.0 9 16
+ 8.14472 2 3 tcp 1040 ------- 0 0.0 4.0 9 16
- 8.14472 2 3 tcp 1040 ------- 0 0.0 4.0 9 16
r 8.24872 1 2 tcp 1040 ------- 0 0.0 4.0 10 17
+ 8.24872 2 3 tcp 1040 ------- 0 0.0 4.0 10 17
- 8.24872 2 3 tcp 1040 ------- 0 0.0 4.0 10 17
r 8.35272 1 2 tcp 1040 ------- 0 0.0 4.0 11 18
+ 8.35272 2 3 tcp 1040 ------- 0 0.0 4.0 11 18
- 8.35272 2 3 tcp 1040 ------- 0 0.0 4.0 11 18
r 8.45672 1 2 tcp 1040 ------- 0 0.0 4.0 12 19
+ 8.45672 2 3 tcp 1040 ------- 0 0.0 4.0 12 19
- 8.45672 2 3 tcp 1040 ------- 0 0.0 4.0 12 19
r 8.54072 2 3 tcp 1040 ------- 0 0.0 4.0 7 14
+ 8.54072 3 4 tcp 1040 ------- 0 0.0 4.0 7 14
- 8.54072 3 4 tcp 1040 ------- 0 0.0 4.0 7 14
r 8.56072 1 2 tcp 1040 ------- 0 0.0 4.0 13 20
+ 8.56072 2 3 tcp 1040 ------- 0 0.0 4.0 13 20
- 8.56072 2 3 tcp 1040 ------- 0 0.0 4.0 13 20
r 8.593493 3 4 tcp 1040 ------- 0 0.0 4.0 7 14
+ 8.593493 4 3 ack 40 ------- 0 4.0 0.0 7 22
- 8.593493 4 3 ack 40 ------- 0 4.0 0.0 7 22
r 8.6436 4 3 ack 40 ------- 0 4.0 0.0 7 22
+ 8.6436 3 2 ack 40 ------- 0 4.0 0.0 7 22
- 8.6436 3 2 ack 40 ------- 0 4.0 0.0 7 22
r 8.64472 2 3 tcp 1040 ------- 0 0.0 4.0 8 15
+ 8.64472 3 4 tcp 1040 ------- 0 0.0 4.0 8 15
- 8.64472 3 4 tcp 1040 ------- 0 0.0 4.0 8 15
r 8.66472 1 2 tcp 1040 ------- 0 0.0 4.0 14 21
+ 8.66472 2 3 tcp 1040 ------- 0 0.0 4.0 14 21
- 8.66472 2 3 tcp 1040 ------- 0 0.0 4.0 14 21
r 8.697493 3 4 tcp 1040 ------- 0 0.0 4.0 8 15
+ 8.697493 4 3 ack 40 ------- 0 4.0 0.0 8 23
- 8.697493 4 3 ack 40 ------- 0 4.0 0.0 8 23
r 8.7476 4 3 ack 40 ------- 0 4.0 0.0 8 23
+ 8.7476 3 2 ack 40 ------- 0 4.0 0.0 8 23
- 8.7476 3 2 ack 40 ------- 0 4.0 0.0 8 23
r 8.74872 2 3 tcp 1040 ------- 0 0.0 4.0 9 16
+ 8.74872 3 4 tcp 1040 ------- 0 0.0 4.0 9 16
- 8.74872 3 4 tcp 1040 ------- 0 0.0 4.0 9 16
r 8.801493 3 4 tcp 1040 ------- 0 0.0 4.0 9 16
+ 8.801493 4 3 ack 40 ------- 0 4.0 0.0 9 24
- 8.801493 4 3 ack 40 ------- 0 4.0 0.0 9 24
r 8.8516 4 3 ack 40 ------- 0 4.0 0.0 9 24
+ 8.8516 3 2 ack 40 ------- 0 4.0 0.0 9 24
- 8.8516 3 2 ack 40 ------- 0 4.0 0.0 9 24
r 8.85272 2 3 tcp 1040 ------- 0 0.0 4.0 10 17
+ 8.85272 3 4 tcp 1040 ------- 0 0.0 4.0 10 17
- 8.85272 3 4 tcp 1040 ------- 0 0.0 4.0 10 17
r 8.905493 3 4 tcp 1040 ------- 0 0.0 4.0 10 17
+ 8.905493 4 3 ack 40 ------- 0 4.0 0.0 10 25
- 8.905493 4 3 ack 40 ------- 0 4.0 0.0 10 25
r 8.9556 4 3 ack 40 ------- 0 4.0 0.0 10 25
+ 8.9556 3 2 ack 40 ------- 0 4.0 0.0 10 25
- 8.9556 3 2 ack 40 ------- 0 4.0 0.0 10 25
r 8.95672 2 3 tcp 1040 ------- 0 0.0 4.0 11 18
+ 8.95672 3 4 tcp 1040 ------- 0 0.0 4.0 11 18
- 8.95672 3 4 tcp 1040 ------- 0 0.0 4.0 11 18
r 9.009493 3 4 tcp 1040 ------- 0 0.0 4.0 11 18
+ 9.009493 4 3 ack 40 ------- 0 4.0 0.0 11 26
- 9.009493 4 3 ack 40 ------- 0 4.0 0.0 11 26
r 9.0596 4 3 ack 40 ------- 0 4.0 0.0 11 26
+ 9.0596 3 2 ack 40 ------- 0 4.0 0.0 11 26
- 9.0596 3 2 ack 40 ------- 0 4.0 0.0 11 26
r 9.06072 2 3 tcp 1040 ------- 0 0.0 4.0 12 19
+ 9.06072 3 4 tcp 1040 ------- 0 0.0 4.0 12 19
- 9.06072 3 4 tcp 1040 ------- 0 0.0 4.0 12 19
r 9.113493 3 4 tcp 1040 ------- 0 0.0 4.0 12 19
+ 9.113493 4 3 ack 40 ------- 0 4.0 0.0 12 27
- 9.113493 4 3 ack 40 ------- 0 4.0 0.0 12 27
r 9.1476 3 2 ack 40 ------- 0 4.0 0.0 7 22
+ 9.1476 2 1 ack 40 ------- 0 4.0 0.0 7 22
- 9.1476 2 1 ack 40 ------- 0 4.0 0.0 7 22
r 9.1636 4 3 ack 40 ------- 0 4.0 0.0 12 27
+ 9.1636 3 2 ack 40 ------- 0 4.0 0.0 12 27
- 9.1636 3 2 ack 40 ------- 0 4.0 0.0 12 27
r 9.16472 2 3 tcp 1040 ------- 0 0.0 4.0 13 20
+ 9.16472 3 4 tcp 1040 ------- 0 0.0 4.0 13 20
- 9.16472 3 4 tcp 1040 ------- 0 0.0 4.0 13 20
r 9.217493 3 4 tcp 1040 ------- 0 0.0 4.0 13 20
+ 9.217493 4 3 ack 40 ------- 0 4.0 0.0 13 28
- 9.217493 4 3 ack 40 ------- 0 4.0 0.0 13 28
r 9.2516 3 2 ack 40 ------- 0 4.0 0.0 8 23
+ 9.2516 2 1 ack 40 ------- 0 4.0 0.0 8 23
- 9.2516 2 1 ack 40 ------- 0 4.0 0.0 8 23
r 9.2676 4 3 ack 40 ------- 0 4.0 0.0 13 28
+ 9.2676 3 2 ack 40 ------- 0 4.0 0.0 13 28
- 9.2676 3 2 ack 40 ------- 0 4.0 0.0 13 28
r 9.26872 2 3 tcp 1040 ------- 0 0.0 4.0 14 21
+ 9.26872 3 4 tcp 1040 ------- 0 0.0 4.0 14 21
- 9.26872 3 4 tcp 1040 ------- 0 0.0 4.0 14 21
r 9.321493 3 4 tcp 1040 ------- 0 0.0 4.0 14 21
+ 9.321493 4 3 ack 40 ------- 0 4.0 0.0 14 29
- 9.321493 4 3 ack 40 ------- 0 4.0 0.0 14 29
r 9.3556 3 2 ack 40 ------- 0 4.0 0.0 9 24
+ 9.3556 2 1 ack 40 ------- 0 4.0 0.0 9 24
- 9.3556 2 1 ack 40 ------- 0 4.0 0.0 9 24
r 9.3716 4 3 ack 40 ------- 0 4.0 0.0 14 29
+ 9.3716 3 2 ack 40 ------- 0 4.0 0.0 14 29
- 9.3716 3 2 ack 40 ------- 0 4.0 0.0 14 29
r 9.4596 3 2 ack 40 ------- 0 4.0 0.0 10 25
+ 9.4596 2 1 ack 40 ------- 0 4.0 0.0 10 25
- 9.4596 2 1 ack 40 ------- 0 4.0 0.0 10 25
r 9.5636 3 2 ack 40 ------- 0 4.0 0.0 11 26
+ 9.5636 2 1 ack 40 ------- 0 4.0 0.0 11 26
- 9.5636 2 1 ack 40 ------- 0 4.0 0.0 11 26
r 9.6516 2 1 ack 40 ------- 0 4.0 0.0 7 22
+ 9.6516 1 0 ack 40 ------- 0 4.0 0.0 7 22
- 9.6516 1 0 ack 40 ------- 0 4.0 0.0 7 22
r 9.661707 1 0 ack 40 ------- 0 4.0 0.0 7 22
+ 9.661707 0 1 tcp 1040 ------- 0 0.0 4.0 15 30
- 9.661707 0 1 tcp 1040 ------- 0 0.0 4.0 15 30
+ 9.661707 0 1 tcp 1040 ------- 0 0.0 4.0 16 31
- 9.66448 0 1 tcp 1040 ------- 0 0.0 4.0 16 31
r 9.6676 3 2 ack 40 ------- 0 4.0 0.0 12 27
+ 9.6676 2 1 ack 40 ------- 0 4.0 0.0 12 27
- 9.6676 2 1 ack 40 ------- 0 4.0 0.0 12 27
r 9.67448 0 1 tcp 1040 ------- 0 0.0 4.0 15 30
+ 9.67448 1 2 tcp 1040 ------- 0 0.0 4.0 15 30
- 9.67448 1 2 tcp 1040 ------- 0 0.0 4.0 15 30
r 9.677253 0 1 tcp 1040 ------- 0 0.0 4.0 16 31
+ 9.677253 1 2 tcp 1040 ------- 0 0.0 4.0 16 31
r 9.7556 2 1 ack 40 ------- 0 4.0 0.0 8 23
+ 9.7556 1 0 ack 40 ------- 0 4.0 0.0 8 23
- 9.7556 1 0 ack 40 ------- 0 4.0 0.0 8 23
r 9.765707 1 0 ack 40 ------- 0 4.0 0.0 8 23
+ 9.765707 0 1 tcp 1040 ------- 0 0.0 4.0 17 32
- 9.765707 0 1 tcp 1040 ------- 0 0.0 4.0 17 32
+ 9.765707 0 1 tcp 1040 ------- 0 0.0 4.0 18 33
- 9.76848 0 1 tcp 1040 ------- 0 0.0 4.0 18 33
r 9.7716 3 2 ack 40 ------- 0 4.0 0.0 13 28
+ 9.7716 2 1 ack 40 ------- 0 4.0 0.0 13 28
- 9.7716 2 1 ack 40 ------- 0 4.0 0.0 13 28
- 9.77848 1 2 tcp 1040 ------- 0 0.0 4.0 16 31
r 9.77848 0 1 tcp 1040 ------- 0 0.0 4.0 17 32
+ 9.77848 1 2 tcp 1040 ------- 0 0.0 4.0 17 32
r 9.781253 0 1 tcp 1040 ------- 0 0.0 4.0 18 33
+ 9.781253 1 2 tcp 1040 ------- 0 0.0 4.0 18 33
r 9.8596 2 1 ack 40 ------- 0 4.0 0.0 9 24
+ 9.8596 1 0 ack 40 ------- 0 4.0 0.0 9 24
- 9.8596 1 0 ack 40 ------- 0 4.0 0.0 9 24
r 9.869707 1 0 ack 40 ------- 0 4.0 0.0 9 24
+ 9.869707 0 1 tcp 1040 ------- 0 0.0 4.0 19 34
- 9.869707 0 1 tcp 1040 ------- 0 0.0 4.0 19 34
+ 9.869707 0 1 tcp 1040 ------- 0 0.0 4.0 20 35
- 9.87248 0 1 tcp 1040 ------- 0 0.0 4.0 20 35
r 9.8756 3 2 ack 40 ------- 0 4.0 0.0 14 29
+ 9.8756 2 1 ack 40 ------- 0 4.0 0.0 14 29
- 9.8756 2 1 ack 40 ------- 0 4.0 0.0 14 29
- 9.88248 1 2 tcp 1040 ------- 0 0.0 4.0 17 32
r 9.88248 0 1 tcp 1040 ------- 0 0.0 4.0 19 34
+ 9.88248 1 2 tcp 1040 ------- 0 0.0 4.0 19 34
r 9.885253 0 1 tcp 1040 ------- 0 0.0 4.0 20 35
+ 9.885253 1 2 tcp 1040 ------- 0 0.0 4.0 20 35
r 9.9636 2 1 ack 40 ------- 0 4.0 0.0 10 25
+ 9.9636 1 0 ack 40 ------- 0 4.0 0.0 10 25
- 9.9636 1 0 ack 40 ------- 0 4.0 0.0 10 25
r 9.973707 1 0 ack 40 ------- 0 4.0 0.0 10 25
+ 9.973707 0 1 tcp 1040 ------- 0 0.0 4.0 21 36
- 9.973707 0 1 tcp 1040 ------- 0 0.0 4.0 21 36
+ 9.973707 0 1 tcp 1040 ------- 0 0.0 4.0 22 37
- 9.97648 0 1 tcp 1040 ------- 0 0.0 4.0 22 37
- 9.98648 1 2 tcp 1040 ------- 0 0.0 4.0 18 33
r 9.98648 0 1 tcp 1040 ------- 0 0.0 4.0 21 36
+ 9.98648 1 2 tcp 1040 ------- 0 0.0 4.0 21 36
r 9.989253 0 1 tcp 1040 ------- 0 0.0 4.0 22 37
+ 9.989253 1 2 tcp 1040 ------- 0 0.0 4.0 22 37
r 10.0676 2 1 ack 40 ------- 0 4.0 0.0 11 26
+ 10.0676 1 0 ack 40 ------- 0 4.0 0.0 11 26
- 10.0676 1 0 ack 40 ------- 0 4.0 0.0 11 26
r 10.077707 1 0 ack 40 ------- 0 4.0 0.0 11 26
+ 10.077707 0 1 tcp 1040 ------- 0 0.0 4.0 23 38
- 10.077707 0 1 tcp 1040 ------- 0 0.0 4.0 23 38
+ 10.077707 0 1 tcp 1040 ------- 0 0.0 4.0 24 39
- 10.08048 0 1 tcp 1040 ------- 0 0.0 4.0 24 39
- 10.09048 1 2 tcp 1040 ------- 0 0.0 4.0 19 34
r 10.09048 0 1 tcp 1040 ------- 0 0.0 4.0 23 38
+ 10.09048 1 2 tcp 1040 ------- 0 0.0 4.0 23 38
r 10.093253 0 1 tcp 1040 ------- 0 0.0 4.0 24 39
+ 10.093253 1 2 tcp 1040 ------- 0 0.0 4.0 24 39
r 10.1716 2 1 ack 40 ------- 0 4.0 0.0 12 27
+ 10.1716 1 0 ack 40 ------- 0 4.0 0.0 12 27
- 10.1716 1 0 ack 40 ------- 0 4.0 0.0 12 27
r 10.181707 1 0 ack 40 ------- 0 4.0 0.0 12 27
+ 10.181707 0 1 tcp 1040 ------- 0 0.0 4.0 25 40
- 10.181707 0 1 tcp 1040 ------- 0 0.0 4.0 25 40
+ 10.181707 0 1 tcp 1040 ------- 0 0.0 4.0 26 41
- 10.18448 0 1 tcp 1040 ------- 0 0.0 4.0 26 41
- 10.19448 1 2 tcp 1040 ------- 0 0.0 4.0 20 35
r 10.19448 0 1 tcp 1040 ------- 0 0.0 4.0 25 40
+ 10.19448 1 2 tcp 1040 ------- 0 0.0 4.0 25 40
r 10.197253 0 1 tcp 1040 ------- 0 0.0 4.0 26 41
+ 10.197253 1 2 tcp 1040 ------- 0 0.0 4.0 26 41
r 10.2756 2 1 ack 40 ------- 0 4.0 0.0 13 28
+ 10.2756 1 0 ack 40 ------- 0 4.0 0.0 13 28
- 10.2756 1 0 ack 40 ------- 0 4.0 0.0 13 28
r 10.27848 1 2 tcp 1040 ------- 0 0.0 4.0 15 30
+ 10.27848 2 3 tcp 1040 ------- 0 0.0 4.0 15 30
- 10.27848 2 3 tcp 1040 ------- 0 0.0 4.0 15 30
r 10.285707 1 0 ack 40 ------- 0 4.0 0.0 13 28
+ 10.285707 0 1 tcp 1040 ------- 0 0.0 4.0 27 42
- 10.285707 0 1 tcp 1040 ------- 0 0.0 4.0 27 42
+ 10.285707 0 1 tcp 1040 ------- 0 0.0 4.0 28 43
- 10.28848 0 1 tcp 1040 ------- 0 0.0 4.0 28 43
- 10.29848 1 2 tcp 1040 ------- 0 0.0 4.0 21 36
r 10.29848 0 1 tcp 1040 ------- 0 0.0 4.0 27 42
+ 10.29848 1 2 tcp 1040 ------- 0 0.0 4.0 27 42
r 10.301253 0 1 tcp 1040 ------- 0 0.0 4.0 28 43
+ 10.301253 1 2 tcp 1040 ------- 0 0.0 4.0 28 43
d 10.301253 1 2 tcp 1040 ------- 0 0.0 4.0 28 43
r 10.3796 2 1 ack 40 ------- 0 4.0 0.0 14 29
+ 10.3796 1 0 ack 40 ------- 0 4.0 0.0 14 29
- 10.3796 1 0 ack 40 ------- 0 4.0 0.0 14 29
r 10.38248 1 2 tcp 1040 ------- 0 0.0 4.0 16 31
+ 10.38248 2 3 tcp 1040 ------- 0 0.0 4.0 16 31
- 10.38248 2 3 tcp 1040 ------- 0 0.0 4.0 16 31
r 10.389707 1 0 ack 40 ------- 0 4.0 0.0 14 29
+ 10.389707 0 1 tcp 1040 ------- 0 0.0 4.0 29 44
- 10.389707 0 1 tcp 1040 ------- 0 0.0 4.0 29 44
+ 10.389707 0 1 tcp 1040 ------- 0 0.0 4.0 30 45
- 10.39248 0 1 tcp 1040 ------- 0 0.0 4.0 30 45
- 10.40248 1 2 tcp 1040 ------- 0 0.0 4.0 22 37
r 10.40248 0 1 tcp 1040 ------- 0 0.0 4.0 29 44
+ 10.40248 1 2 tcp 1040 ------- 0 0.0 4.0 29 44
r 10.405253 0 1 tcp 1040 ------- 0 0.0 4.0 30 45
+ 10.405253 1 2 tcp 1040 ------- 0 0.0 4.0 30 45
d 10.405253 1 2 tcp 1040 ------- 0 0.0 4.0 30 45
r 10.48648 1 2 tcp 1040 ------- 0 0.0 4.0 17 32
+ 10.48648 2 3 tcp 1040 ------- 0 0.0 4.0 17 32
- 10.48648 2 3 tcp 1040 ------- 0 0.0 4.0 17 32
- 10.50648 1 2 tcp 1040 ------- 0 0.0 4.0 23 38
r 10.59048 1 2 tcp 1040 ------- 0 0.0 4.0 18 33
+ 10.59048 2 3 tcp 1040 ------- 0 0.0 4.0 18 33
- 10.59048 2 3 tcp 1040 ------- 0 0.0 4.0 18 33
- 10.61048 1 2 tcp 1040 ------- 0 0.0 4.0 24 39
r 10.69448 1 2 tcp 1040 ------- 0 0.0 4.0 19 34
+ 10.69448 2 3 tcp 1040 ------- 0 0.0 4.0 19 34
- 10.69448 2 3 tcp 1040 ------- 0 0.0 4.0 19 34
- 10.71448 1 2 tcp 1040 ------- 0 0.0 4.0 25 40
r 10.79848 1 2 tcp 1040 ------- 0 0.0 4.0 20 35
+ 10.79848 2 3 tcp 1040 ------- 0 0.0 4.0 20 35
- 10.79848 2 3 tcp 1040 ------- 0 0.0 4.0 20 35
- 10.81848 1 2 tcp 1040 ------- 0 0.0 4.0 26 41
r 10.88248 2 3 tcp 1040 ------- 0 0.0 4.0 15 30
+ 10.88248 3 4 tcp 1040 ------- 0 0.0 4.0 15 30
- 10.88248 3 4 tcp 1040 ------- 0 0.0 4.0 15 30
r 10.90248 1 2 tcp 1040 ------- 0 0.0 4.0 21 36
+ 10.90248 2 3 tcp 1040 ------- 0 0.0 4.0 21 36
- 10.90248 2 3 tcp 1040 ------- 0 0.0 4.0 21 36
- 10.92248 1 2 tcp 1040 ------- 0 0.0 4.0 27 42
r 10.935253 3 4 tcp 1040 ------- 0 0.0 4.0 15 30
+ 10.935253 4 3 ack 40 ------- 0 4.0 0.0 15 46
- 10.935253 4 3 ack 40 ------- 0 4.0 0.0 15 46
r 10.98536 4 3 ack 40 ------- 0 4.0 0.0 15 46
+ 10.98536 3 2 ack 40 ------- 0 4.0 0.0 15 46
- 10.98536 3 2 ack 40 ------- 0 4.0 0.0 15 46
r 10.98648 2 3 tcp 1040 ------- 0 0.0 4.0 16 31
+ 10.98648 3 4 tcp 1040 ------- 0 0.0 4.0 16 31
- 10.98648 3 4 tcp 1040 ------- 0 0.0 4.0 16 31
r 11.00648 1 2 tcp 1040 ------- 0 0.0 4.0 22 37
+ 11.00648 2 3 tcp 1040 ------- 0 0.0 4.0 22 37
- 11.00648 2 3 tcp 1040 ------- 0 0.0 4.0 22 37
- 11.02648 1 2 tcp 1040 ------- 0 0.0 4.0 29 44
r 11.039253 3 4 tcp 1040 ------- 0 0.0 4.0 16 31
+ 11.039253 4 3 ack 40 ------- 0 4.0 0.0 16 47
- 11.039253 4 3 ack 40 ------- 0 4.0 0.0 16 47
r 11.08936 4 3 ack 40 ------- 0 4.0 0.0 16 47
+ 11.08936 3 2 ack 40 ------- 0 4.0 0.0 16 47
- 11.08936 3 2 ack 40 ------- 0 4.0 0.0 16 47
r 11.09048 2 3 tcp 1040 ------- 0 0.0 4.0 17 32
+ 11.09048 3 4 tcp 1040 ------- 0 0.0 4.0 17 32
- 11.09048 3 4 tcp 1040 ------- 0 0.0 4.0 17 32
r 11.11048 1 2 tcp 1040 ------- 0 0.0 4.0 23 38
+ 11.11048 2 3 tcp 1040 ------- 0 0.0 4.0 23 38
- 11.11048 2 3 tcp 1040 ------- 0 0.0 4.0 23 38
r 11.143253 3 4 tcp 1040 ------- 0 0.0 4.0 17 32
+ 11.143253 4 3 ack 40 ------- 0 4.0 0.0 17 48
- 11.143253 4 3 ack 40 ------- 0 4.0 0.0 17 48
r 11.19336 4 3 ack 40 ------- 0 4.0 0.0 17 48
+ 11.19336 3 2 ack 40 ------- 0 4.0 0.0 17 48
- 11.19336 3 2 ack 40 ------- 0 4.0 0.0 17 48
r 11.19448 2 3 tcp 1040 ------- 0 0.0 4.0 18 33
+ 11.19448 3 4 tcp 1040 ------- 0 0.0 4.0 18 33
- 11.19448 3 4 tcp 1040 ------- 0 0.0 4.0 18 33
r 11.21448 1 2 tcp 1040 ------- 0 0.0 4.0 24 39
+ 11.21448 2 3 tcp 1040 ------- 0 0.0 4.0 24 39
- 11.21448 2 3 tcp 1040 ------- 0 0.0 4.0 24 39
r 11.247253 3 4 tcp 1040 ------- 0 0.0 4.0 18 33
+ 11.247253 4 3 ack 40 ------- 0 4.0 0.0 18 49
- 11.247253 4 3 ack 40 ------- 0 4.0 0.0 18 49
r 11.29736 4 3 ack 40 ------- 0 4.0 0.0 18 49
+ 11.29736 3 2 ack 40 ------- 0 4.0 0.0 18 49
- 11.29736 3 2 ack 40 ------- 0 4.0 0.0 18 49
r 11.29848 2 3 tcp 1040 ------- 0 0.0 4.0 19 34
+ 11.29848 3 4 tcp 1040 ------- 0 0.0 4.0 19 34
- 11.29848 3 4 tcp 1040 ------- 0 0.0 4.0 19 34
r 11.31848 1 2 tcp 1040 ------- 0 0.0 4.0 25 40
+ 11.31848 2 3 tcp 1040 ------- 0 0.0 4.0 25 40
- 11.31848 2 3 tcp 1040 ------- 0 0.0 4.0 25 40
r 11.351253 3 4 tcp 1040 ------- 0 0.0 4.0 19 34
+ 11.351253 4 3 ack 40 ------- 0 4.0 0.0 19 50
- 11.351253 4 3 ack 40 ------- 0 4.0 0.0 19 50
r 11.40136 4 3 ack 40 ------- 0 4.0 0.0 19 50
+ 11.40136 3 2 ack 40 ------- 0 4.0 0.0 19 50
- 11.40136 3 2 ack 40 ------- 0 4.0 0.0 19 50
r 11.40248 2 3 tcp 1040 ------- 0 0.0 4.0 20 35
+ 11.40248 3 4 tcp 1040 ------- 0 0.0 4.0 20 35
- 11.40248 3 4 tcp 1040 ------- 0 0.0 4.0 20 35
r 11.42248 1 2 tcp 1040 ------- 0 0.0 4.0 26 41
+ 11.42248 2 3 tcp 1040 ------- 0 0.0 4.0 26 41
- 11.42248 2 3 tcp 1040 ------- 0 0.0 4.0 26 41
r 11.455253 3 4 tcp 1040 ------- 0 0.0 4.0 20 35
+ 11.455253 4 3 ack 40 ------- 0 4.0 0.0 20 51
- 11.455253 4 3 ack 40 ------- 0 4.0 0.0 20 51
r 11.48936 3 2 ack 40 ------- 0 4.0 0.0 15 46
+ 11.48936 2 1 ack 40 ------- 0 4.0 0.0 15 46
- 11.48936 2 1 ack 40 ------- 0 4.0 0.0 15 46
r 11.50536 4 3 ack 40 ------- 0 4.0 0.0 20 51
+ 11.50536 3 2 ack 40 ------- 0 4.0 0.0 20 51
- 11.50536 3 2 ack 40 ------- 0 4.0 0.0 20 51
r 11.50648 2 3 tcp 1040 ------- 0 0.0 4.0 21 36
+ 11.50648 3 4 tcp 1040 ------- 0 0.0 4.0 21 36
- 11.50648 3 4 tcp 1040 ------- 0 0.0 4.0 21 36
r 11.52648 1 2 tcp 1040 ------- 0 0.0 4.0 27 42
+ 11.52648 2 3 tcp 1040 ------- 0 0.0 4.0 27 42
- 11.52648 2 3 tcp 1040 ------- 0 0.0 4.0 27 42
r 11.559253 3 4 tcp 1040 ------- 0 0.0 4.0 21 36
+ 11.559253 4 3 ack 40 ------- 0 4.0 0.0 21 52
- 11.559253 4 3 ack 40 ------- 0 4.0 0.0 21 52
r 11.59336 3 2 ack 40 ------- 0 4.0 0.0 16 47
+ 11.59336 2 1 ack 40 ------- 0 4.0 0.0 16 47
- 11.59336 2 1 ack 40 ------- 0 4.0 0.0 16 47
r 11.60936 4 3 ack 40 ------- 0 4.0 0.0 21 52
+ 11.60936 3 2 ack 40 ------- 0 4.0 0.0 21 52
- 11.60936 3 2 ack 40 ------- 0 4.0 0.0 21 52
r 11.61048 2 3 tcp 1040 ------- 0 0.0 4.0 22 37
+ 11.61048 3 4 tcp 1040 ------- 0 0.0 4.0 22 37
- 11.61048 3 4 tcp 1040 ------- 0 0.0 4.0 22 37
r 11.63048 1 2 tcp 1040 ------- 0 0.0 4.0 29 44
+ 11.63048 2 3 tcp 1040 ------- 0 0.0 4.0 29 44
- 11.63048 2 3 tcp 1040 ------- 0 0.0 4.0 29 44
r 11.663253 3 4 tcp 1040 ------- 0 0.0 4.0 22 37
+ 11.663253 4 3 ack 40 ------- 0 4.0 0.0 22 53
- 11.663253 4 3 ack 40 ------- 0 4.0 0.0 22 53
r 11.69736 3 2 ack 40 ------- 0 4.0 0.0 17 48
+ 11.69736 2 1 ack 40 ------- 0 4.0 0.0 17 48
- 11.69736 2 1 ack 40 ------- 0 4.0 0.0 17 48
r 11.71336 4 3 ack 40 ------- 0 4.0 0.0 22 53
+ 11.71336 3 2 ack 40 ------- 0 4.0 0.0 22 53
- 11.71336 3 2 ack 40 ------- 0 4.0 0.0 22 53
r 11.71448 2 3 tcp 1040 ------- 0 0.0 4.0 23 38
+ 11.71448 3 4 tcp 1040 ------- 0 0.0 4.0 23 38
- 11.71448 3 4 tcp 1040 ------- 0 0.0 4.0 23 38
r 11.767253 3 4 tcp 1040 ------- 0 0.0 4.0 23 38
+ 11.767253 4 3 ack 40 ------- 0 4.0 0.0 23 54
- 11.767253 4 3 ack 40 ------- 0 4.0 0.0 23 54
r 11.80136 3 2 ack 40 ------- 0 4.0 0.0 18 49
+ 11.80136 2 1 ack 40 ------- 0 4.0 0.0 18 49
- 11.80136 2 1 ack 40 ------- 0 4.0 0.0 18 49
r 11.81736 4 3 ack 40 ------- 0 4.0 0.0 23 54
+ 11.81736 3 2 ack 40 ------- 0 4.0 0.0 23 54
- 11.81736 3 2 ack 40 ------- 0 4.0 0.0 23 54
r 11.81848 2 3 tcp 1040 ------- 0 0.0 4.0 24 39
+ 11.81848 3 4 tcp 1040 ------- 0 0.0 4.0 24 39
- 11.81848 3 4 tcp 1040 ------- 0 0.0 4.0 24 39
r 11.871253 3 4 tcp 1040 ------- 0 0.0 4.0 24 39
+ 11.871253 4 3 ack 40 ------- 0 4.0 0.0 24 55
- 11.871253 4 3 ack 40 ------- 0 4.0 0.0 24 55
r 11.90536 3 2 ack 40 ------- 0 4.0 0.0 19 50
+ 11.90536 2 1 ack 40 ------- 0 4.0 0.0 19 50
- 11.90536 2 1 ack 40 ------- 0 4.0 0.0 19 50
r 11.92136 4 3 ack 40 ------- 0 4.0 0.0 24 55
+ 11.92136 3 2 ack 40 ------- 0 4.0 0.0 24 55
- 11.92136 3 2 ack 40 ------- 0 4.0 0.0 24 55
r 11.92248 2 3 tcp 1040 ------- 0 0.0 4.0 25 40
+ 11.92248 3 4 tcp 1040 ------- 0 0.0 4.0 25 40
- 11.92248 3 4 tcp 1040 ------- 0 0.0 4.0 25 40
r 11.975253 3 4 tcp 1040 ------- 0 0.0 4.0 25 40
+ 11.975253 4 3 ack 40 ------- 0 4.0 0.0 25 56
- 11.975253 4 3 ack 40 ------- 0 4.0 0.0 25 56
r 11.99336 2 1 ack 40 ------- 0 4.0 0.0 15 46
+ 11.99336 1 0 ack 40 ------- 0 4.0 0.0 15 46
- 11.99336 1 0 ack 40 ------- 0 4.0 0.0 15 46
r 12.003467 1 0 ack 40 ------- 0 4.0 0.0 15 46
+ 12.003467 0 1 tcp 1040 ------- 0 0.0 4.0 31 57
- 12.003467 0 1 tcp 1040 ------- 0 0.0 4.0 31 57
+ 12.003467 0 1 tcp 1040 ------- 0 0.0 4.0 32 58
- 12.00624 0 1 tcp 1040 ------- 0 0.0 4.0 32 58
r 12.00936 3 2 ack 40 ------- 0 4.0 0.0 20 51
+ 12.00936 2 1 ack 40 ------- 0 4.0 0.0 20 51
- 12.00936 2 1 ack 40 ------- 0 4.0 0.0 20 51
r 12.01624 0 1 tcp 1040 ------- 0 0.0 4.0 31 57
+ 12.01624 1 2 tcp 1040 ------- 0 0.0 4.0 31 57
- 12.01624 1 2 tcp 1040 ------- 0 0.0 4.0 31 57
r 12.019013 0 1 tcp 1040 ------- 0 0.0 4.0 32 58
+ 12.019013 1 2 tcp 1040 ------- 0 0.0 4.0 32 58
r 12.02536 4 3 ack 40 ------- 0 4.0 0.0 25 56
+ 12.02536 3 2 ack 40 ------- 0 4.0 0.0 25 56
- 12.02536 3 2 ack 40 ------- 0 4.0 0.0 25 56
r 12.02648 2 3 tcp 1040 ------- 0 0.0 4.0 26 41
+ 12.02648 3 4 tcp 1040 ------- 0 0.0 4.0 26 41
- 12.02648 3 4 tcp 1040 ------- 0 0.0 4.0 26 41
r 12.079253 3 4 tcp 1040 ------- 0 0.0 4.0 26 41
+ 12.079253 4 3 ack 40 ------- 0 4.0 0.0 26 59
- 12.079253 4 3 ack 40 ------- 0 4.0 0.0 26 59
r 12.09736 2 1 ack 40 ------- 0 4.0 0.0 16 47
+ 12.09736 1 0 ack 40 ------- 0 4.0 0.0 16 47
- 12.09736 1 0 ack 40 ------- 0 4.0 0.0 16 47
r 12.107467 1 0 ack 40 ------- 0 4.0 0.0 16 47
+ 12.107467 0 1 tcp 1040 ------- 0 0.0 4.0 33 60
- 12.107467 0 1 tcp 1040 ------- 0 0.0 4.0 33 60
+ 12.107467 0 1 tcp 1040 ------- 0 0.0 4.0 34 61
- 12.11024 0 1 tcp 1040 ------- 0 0.0 4.0 34 61
r 12.11336 3 2 ack 40 ------- 0 4.0 0.0 21 52
+ 12.11336 2 1 ack 40 ------- 0 4.0 0.0 21 52
- 12.11336 2 1 ack 40 ------- 0 4.0 0.0 21 52
- 12.12024 1 2 tcp 1040 ------- 0 0.0 4.0 32 58
r 12.12024 0 1 tcp 1040 ------- 0 0.0 4.0 33 60
+ 12.12024 1 2 tcp 1040 ------- 0 0.0 4.0 33 60
r 12.123013 0 1 tcp 1040 ------- 0 0.0 4.0 34 61
+ 12.123013 1 2 tcp 1040 ------- 0 0.0 4.0 34 61
r 12.12936 4 3 ack 40 ------- 0 4.0 0.0 26 59
+ 12.12936 3 2 ack 40 ------- 0 4.0 0.0 26 59
- 12.12936 3 2 ack 40 ------- 0 4.0 0.0 26 59
r 12.13048 2 3 tcp 1040 ------- 0 0.0 4.0 27 42
+ 12.13048 3 4 tcp 1040 ------- 0 0.0 4.0 27 42
- 12.13048 3 4 tcp 1040 ------- 0 0.0 4.0 27 42
r 12.183253 3 4 tcp 1040 ------- 0 0.0 4.0 27 42
+ 12.183253 4 3 ack 40 ------- 0 4.0 0.0 27 62
- 12.183253 4 3 ack 40 ------- 0 4.0 0.0 27 62
r 12.20136 2 1 ack 40 ------- 0 4.0 0.0 17 48
+ 12.20136 1 0 ack 40 ------- 0 4.0 0.0 17 48
- 12.20136 1 0 ack 40 ------- 0 4.0 0.0 17 48
r 12.211467 1 0 ack 40 ------- 0 4.0 0.0 17 48
+ 12.211467 0 1 tcp 1040 ------- 0 0.0 4.0 35 63
- 12.211467 0 1 tcp 1040 ------- 0 0.0 4.0 35 63
+ 12.211467 0 1 tcp 1040 ------- 0 0.0 4.0 36 64